ITEM: TIMESTEP
0
ITEM: NUMBER OF ATOMS
900
ITEM: BOX BOUNDS pp pp pp
7.3598007983716585e-01 3.3264019920151441e+01
7.3598007983716585e-01 3.3264019920151441e+01
7.3598007983716585e-01 3.3264019920151441e+01
ITEM: ATOMS id mol type x y z 
13726 0 3 2.05079 3.91624 3.03835 
2464 0 3 5.50394 5.55386 2.89101 
19829 0 3 4.6522 4.12482 4.90511 
12839 0 3 2.94389 5.41781 4.57617 
14823 0 3 2.77358 4.9491 5.52308 
19219 0 3 4.74822 2.21976 7.929 
18502 0 3 5.69412 1.02973 9.62563 
8629 0 3 2.57791 4.86538 8.04205 
4769 0 3 1.6436 2.31512 11.1396 
2341 0 3 1.1308 6.10483 11.379 
22208 0 3 5.05206 4.35962 14.3321 
2699 0 3 1.52419 6.00763 15.8171 
6578 0 3 1.77817 0.813886 21.4352 
6598 0 3 2.68707 5.8674 21.3084 
2705 0 3 3.10626 4.65151 21.6493 
17423 0 3 2.22791 1.17311 22.4355 
24031 0 3 2.32437 3.08301 23.0515 
15173 0 3 0.838025 5.71311 25.6466 
7351 0 3 3.08833 3.96317 26.0637 
18467 0 3 1.73021 0.924611 28.3025 
24763 0 3 2.69478 2.98972 29.033 
26418 0 3 5.7547 5.18725 28.8301 
3198 0 3 4.65633 4.78841 30.888 
2331 0 3 1.03327 0.917094 31.7417 
5113 0 3 6.06679 2.12766 33.2197 
9310 0 3 3.54046 4.10706 33.1197 
2870 0 3 4.85162 10.2087 3.92264 
7393 0 3 5.18986 10.1997 2.75235 
6841 0 3 4.12211 8.65688 5.7809 
8063 0 3 1.11428 9.0023 9.48328 
21647 0 3 3.99588 11.2918 9.33211 
24910 0 3 2.04186 6.69484 10.6924 
602 0 3 6.03667 6.33571 10.5946 
18718 0 3 1.72284 8.70576 12.5119 
16504 0 3 2.87638 6.40303 14.8957 
17245 0 3 2.41609 9.88619 16.189 
1260 0 3 0.844709 10.1713 18.7205 
25376 0 3 5.72897 11.4584 18.79 
8695 0 3 1.99284 8.48421 19.0131 
26557 0 3 3.40045 7.32613 22.1525 
17278 0 3 2.66451 6.96497 22.8622 
12598 0 3 3.88063 8.01474 24.5298 
521 0 3 2.96728 9.44222 24.9284 
26117 0 3 5.23374 7.5885 26.0816 
10223 0 3 5.42466 10.3038 29.8354 
1337 0 3 2.93865 16.2178 1.56073 
5711 0 3 4.85887 11.642 4.34053 
18984 0 3 1.46904 13.6316 3.2734 
21912 0 3 4.03189 14.7844 3.08914 
26382 0 3 3.7866 12.7453 7.10206 
21700 0 3 5.42414 15.0725 13.1052 
11701 0 3 5.98188 15.0826 11.9668 
7543 0 3 4.11904 12.1035 16.6517 
12965 0 3 1.11833 14.4206 17.443 
1890 0 3 3.91869 13.7687 18.3713 
23020 0 3 2.67356 16.3959 17.1266 
6373 0 3 6.00591 15.766 18.1282 
24351 0 3 4.03444 13.5171 19.4042 
9218 0 3 3.05215 11.6452 22.6678 
21380 0 3 5.86461 15.1232 23.4752 
2450 0 3 1.42561 16.5942 23.8053 
1831 0 3 1.03652 16.3805 24.9412 
20338 0 3 2.49079 15.74 26.6759 
17999 0 3 4.61129 13.5706 28.1741 
5987 0 3 1.01872 16.7536 27.8496 
25881 0 3 5.94721 14.563 30.4946 
6693 0 3 2.9859 13.3221 33.2275 
19027 0 3 3.75836 19.8886 2.17415 
8209 0 3 5.21818 19.3281 2.26382 
7779 0 3 1.11158 21.8358 1.73623 
1980 0 3 1.72182 20.9789 1.17308 
25622 0 3 5.24261 21.0006 3.1687 
24434 0 3 4.09718 17.8816 5.32565 
23439 0 3 5.27437 17.8154 4.99557 
15896 0 3 4.77194 18.7978 9.59412 
26544 0 3 2.06735 19.6325 8.48939 
17900 0 3 3.76581 22.0101 11.334 
16866 0 3 3.20898 18.6275 11.7903 
9307 0 3 4.72202 19.9704 11.7803 
25878 0 3 1.54044 21.8264 12.14 
12686 0 3 2.72452 22.2121 12.9311 
1418 0 3 2.5869 18.2911 14.6462 
15452 0 3 0.93764 20.9912 13.7959 
12930 0 3 5.66138 21.6368 13.5093 
8836 0 3 2.85865 20.7123 16.6268 
17293 0 3 2.67158 17.5154 18.2808 
1352 0 3 4.67254 20.7547 17.9072 
25128 0 3 3.48671 18.1265 19.6945 
1032 0 3 5.75601 19.0355 18.9569 
2353 0 3 2.12962 17.3288 21.5879 
20235 0 3 4.72069 18.1968 21.0738 
3620 0 3 3.7496 19.4238 25.161 
10577 0 3 1.91617 20.6491 24.529 
5569 0 3 3.8739 17.0984 26.4904 
12918 0 3 1.13406 20.2379 26.6548 
26831 0 3 2.46489 20.0637 30.5003 
20853 0 3 2.88217 21.0393 32.7454 
12804 0 3 4.80931 21.9564 33.0628 
19634 0 3 3.52198 23.0939 4.05152 
11632 0 3 3.69534 24.9479 3.91246 
9537 0 3 1.42756 26.1153 14.9773 
22644 0 3 3.94954 25.1477 15.4002 
22441 0 3 6.06315 25.2837 16.0387 
9790 0 3 1.79668 27.5319 16.3592 
12296 0 3 1.29122 24.2082 17.4816 
20964 0 3 2.33504 27.0574 18.1467 
5324 0 3 3.64578 26.1461 18.7443 
17673 0 3 2.27879 23.1584 19.631 
15688 0 3 5.44736 24.9719 20.0539 
16386 0 3 1.92597 27.6423 18.8345 
2196 0 3 3.49663 26.4578 20.6978 
8896 0 3 2.5583 24.7562 23.6712 
16036 0 3 5.73363 24.5126 22.4344 
15967 0 3 3.11315 27.566 23.6266 
3103 0 3 5.07809 23.8774 25.757 
10172 0 3 0.860013 26.6849 24.7983 
3625 0 3 2.44416 27.1684 27.7326 
11960 0 3 1.64875 22.6529 28.5147 
23558 0 3 6.00583 22.5554 29.4309 
15269 0 3 4.37291 24.3812 28.558 
13767 0 3 5.76301 24.3781 30.4767 
829 0 3 5.79264 30.9542 4.00872 
8403 0 3 3.00953 28.3923 7.9364 
19288 0 3 2.13022 30.0956 7.64141 
22858 0 3 1.16432 30.519 9.49413 
16994 0 3 5.82925 32.5437 9.80328 
9698 0 3 5.77379 29.4205 13.3257 
23232 0 3 5.47638 32.4633 12.543 
20583 0 3 3.19548 28.4989 14.9994 
4086 0 3 5.50003 31.5005 14.5346 
2329 0 3 1.07376 33.0419 15.7958 
18726 0 3 4.6704 29.8704 18.0271 
21105 0 3 5.80217 29.0148 20.8677 
10326 0 3 1.3018 29.6069 23.7764 
2922 0 3 1.92863 27.996 23.6958 
23086 0 3 4.25188 29.1744 22.6873 
6882 0 3 4.06811 30.8861 25.0989 
9810 0 3 5.1384 31.158 25.1882 
5177 0 3 2.07656 31.0943 26.6436 
21400 0 3 3.55587 29.1647 28.6481 
219 0 3 1.82653 29.8437 29.7726 
5449 0 3 4.40644 29.5731 31.6846 
15268 0 3 7.1411 0.938474 0.993744 
6732 0 3 7.4116 3.30933 3.68333 
24818 0 3 9.63758 4.01556 3.95034 
6491 0 3 6.9043 1.74532 6.58324 
22565 0 3 10.1011 1.14813 9.07229 
18011 0 3 8.04738 1.68438 11.9828 
8077 0 3 8.20826 3.56176 11.7026 
22663 0 3 9.44329 1.00005 14.6315 
14225 0 3 10.4072 5.4893 13.8883 
14265 0 3 8.43119 0.788849 16.4499 
8460 0 3 8.46573 2.31549 15.457 
8865 0 3 6.15838 4.14514 15.4036 
11695 0 3 11.177 1.77901 17.6562 
23458 0 3 7.71894 3.98571 17.7499 
12576 0 3 9.4624 5.8626 18.9081 
17325 0 3 11.0932 3.87244 21.4595 
9004 0 3 9.03807 4.67799 23.6855 
21051 0 3 10.3544 5.81369 23.8443 
23534 0 3 7.68084 3.39687 24.912 
21594 0 3 8.51446 2.15341 26.4967 
4642 0 3 6.34208 3.5648 26.4945 
19216 0 3 10.0785 1.98721 29.0404 
8289 0 3 7.97519 2.58903 29.3116 
22128 0 3 8.7995 1.22661 32.7228 
17376 0 3 9.52239 4.11112 31.7124 
321 0 3 10.3909 2.92312 33.2004 
1645 0 3 6.82111 10.7528 1.44044 
72 0 3 8.13232 8.85993 4.97473 
11926 0 3 7.22795 10.598 5.28779 
13188 0 3 9.03763 9.92056 6.73279 
14396 0 3 7.12716 8.30943 11.1709 
11841 0 3 8.68652 7.04338 11.6827 
10089 0 3 11.043 7.01377 12.0553 
18019 0 3 11.4646 9.27756 13.6408 
5110 0 3 6.43054 11.145 14.9856 
399 0 3 6.75735 7.59735 15.7084 
2243 0 3 11.0938 8.83588 17.0853 
18054 0 3 10.0035 7.5392 19.6306 
8583 0 3 8.65563 8.73971 19.018 
19078 0 3 8.65874 11.395 20.1596 
14359 0 3 11.4534 8.54181 21.2351 
20172 0 3 10.0495 8.46976 21.6101 
24485 0 3 9.985 10.9201 21.9218 
26781 0 3 10.6353 9.36278 23.8548 
1776 0 3 9.6328 10.7854 23.9927 
20746 0 3 8.91263 11.4235 23.5498 
8367 0 3 6.25953 7.85515 25.6835 
17553 0 3 6.53295 10.3946 25.9828 
9289 0 3 7.52116 10.6953 28.5836 
9676 0 3 7.42022 7.58487 33.0041 
17323 0 3 8.43171 9.79421 32.3638 
279 0 3 6.53492 15.6906 1.83201 
4693 0 3 11.3367 16.6776 1.8004 
23877 0 3 7.39579 15.9965 3.17142 
12066 0 3 8.94312 16.5363 4.01959 
15028 0 3 11.5512 16.0725 4.03279 
4358 0 3 6.22224 11.9239 5.55142 
23595 0 3 10.9402 12.4 4.58736 
14242 0 3 6.7972 13.2706 9.56547 
10038 0 3 9.9153 12.4759 8.50568 
9720 0 3 7.36486 13.4192 8.3783 
11705 0 3 7.57015 15.3592 9.1502 
11161 0 3 10.1017 16.474 8.03531 
25906 0 3 7.39638 12.9467 10.6065 
26070 0 3 11.4427 12.3347 11.2885 
25084 0 3 10.0916 14.9017 10.5876 
26207 0 3 11.2197 14.8962 10.6202 
12010 0 3 11.0913 16.1236 12.537 
1269 0 3 9.18819 13.2781 13.7709 
156 0 3 10.9046 14.968 14.9416 
18605 0 3 8.47492 13.9083 16.8712 
24792 0 3 8.0651 15.0576 15.6508 
10330 0 3 10.9147 13.5577 16.435 
2228 0 3 9.70386 12.999 18.4894 
20715 0 3 6.19763 13.512 18.1627 
11846 0 3 6.98812 11.7189 20.5282 
14727 0 3 7.12997 16.3465 21.1837 
7760 0 3 8.87189 16.3004 21.5153 
18093 0 3 11.3001 12.7791 23.3644 
4248 0 3 11.0034 11.8138 24.6273 
3265 0 3 8.9315 15.1337 25.948 
10 0 3 10.3277 15.1902 24.5522 
26648 0 3 10.048 16.2597 25.9977 
23897 0 3 9.43963 13.2115 27.7694 
2912 0 3 7.17158 14.4241 27.7331 
17386 0 3 11.1063 14.5492 27.9475 
8871 0 3 10.8921 15.916 27.9038 
7542 0 3 8.49854 12.8192 30.851 
4398 0 3 6.23008 11.778 32.0354 
22080 0 3 8.21939 11.8936 31.76 
23477 0 3 10.1934 12.1729 32.0599 
23525 0 3 7.2223 15.1817 32.1161 
19947 0 3 9.94202 14.2152 32.7798 
25380 0 3 8.00837 18.1093 2.00105 
13836 0 3 8.56195 20.7679 2.27685 
1928 0 3 9.43788 21.3417 3.01053 
24161 0 3 7.48906 17.1504 5.22253 
26940 0 3 8.08744 18.9297 4.93003 
2702 0 3 6.31288 22.3422 7.79764 
18950 0 3 7.85849 19.9869 9.74221 
13195 0 3 9.77657 20.5241 9.19114 
12370 0 3 8.42393 18.0952 12.8476 
534 0 3 9.12229 21.3862 13.2715 
1287 0 3 9.54769 18.0194 16.2474 
16487 0 3 6.55402 19.079 16.5156 
24068 0 3 6.81061 22.0267 21.0771 
3336 0 3 7.46936 18.7423 25.7381 
4902 0 3 6.22687 17.8538 28.915 
19180 0 3 11.4008 20.0538 28.1655 
7515 0 3 10.392 19.9119 29.2517 
6954 0 3 8.95977 18.5394 30.2809 
21299 0 3 6.55554 20.4246 29.6937 
25303 0 3 7.89339 21.785 30.184 
12348 0 3 10.3759 22.2033 31.3169 
23145 0 3 8.92267 18.1969 31.8247 
6782 0 3 8.16333 18.5121 32.5465 
24217 0 3 7.86803 19.5271 33.168 
2626 0 3 7.02013 22.8079 2.38738 
3092 0 3 8.68166 25.2816 0.818945 
26255 0 3 11.1242 24.2983 1.46682 
7982 0 3 10.9015 23.6793 3.86256 
24990 0 3 8.39683 24.3179 3.31676 
5445 0 3 8.37718 27.1833 6.96315 
788 0 3 9.0498 22.9466 10.784 
18074 0 3 7.92491 27.2344 10.0442 
26224 0 3 7.58452 24.8699 12.701 
2615 0 3 9.53408 25.4831 16.0094 
8624 0 3 8.32163 25.3802 19.8374 
8105 0 3 6.42086 27.3695 20.4658 
6409 0 3 8.89531 27.0384 20.1513 
8254 0 3 10.9867 27.0262 20.8044 
1796 0 3 10.0622 26.5824 21.6178 
25491 0 3 6.64549 26.7429 23.2748 
6503 0 3 8.35295 24.2144 25.3675 
18476 0 3 10.9091 24.6011 25.0841 
23800 0 3 8.37075 27.6014 24.6427 
22709 0 3 11.2067 24.196 27.4329 
5911 0 3 7.76247 27.7703 27.5144 
24727 0 3 9.91245 25.7168 29.249 
23485 0 3 8.62355 23.2772 30.7021 
4676 0 3 10.0485 24.7274 31.8814 
23497 0 3 9.47337 27.376 32.5339 
5117 0 3 11.564 28.4559 1.09156 
24496 0 3 10.0293 29.621 2.68268 
23225 0 3 10.665 28.8234 4.12025 
17105 0 3 8.91921 29.8455 4.2524 
2883 0 3 6.95925 30.9275 6.00991 
1134 0 3 8.74908 30.3536 5.12914 
21791 0 3 7.67518 29.5169 7.52605 
9962 0 3 7.44102 29.535 9.58712 
18836 0 3 7.36408 28.0103 8.93187 
22333 0 3 10.7676 30.2597 10.2657 
2365 0 3 6.32195 31.9831 10.6461 
19440 0 3 10.7393 28.0005 13.6102 
3911 0 3 7.43052 30.4795 13.6886 
15831 0 3 8.66951 31.0221 15.0744 
9149 0 3 8.83689 29.6475 15.2059 
23111 0 3 7.35391 30.6361 16.6132 
7664 0 3 7.7781 29.1173 17.908 
16867 0 3 10.1004 30.8273 18.2455 
9554 0 3 7.14676 30.4369 19.4813 
4880 0 3 11.5178 30.6134 20.3216 
18340 0 3 10.9329 29.9573 19.6888 
11143 0 3 9.64391 31.0085 27.2715 
23902 0 3 11.4761 28.0703 28.0681 
12065 0 3 7.39617 30.3572 28.6822 
3013 0 3 10.879 29.9215 30.5245 
8963 0 3 7.72438 32.0018 32.4533 
24296 0 3 8.61856 31.618 32.0807 
1091 0 3 14.4766 1.53028 2.10463 
5983 0 3 13.4906 2.53653 1.53059 
8983 0 3 16.8754 0.811357 2.92346 
15171 0 3 15.7881 3.46313 4.95181 
6199 0 3 15.2406 5.96335 5.06961 
19537 0 3 13.8713 1.32797 7.15374 
3814 0 3 14.8751 2.97682 9.48691 
8747 0 3 12.6607 4.89251 15.8169 
13727 0 3 11.8316 3.1455 17.4714 
12059 0 3 14.4314 2.73262 19.0441 
26231 0 3 16.6776 3.30158 20.2691 
9518 0 3 12.1066 2.12736 21.1123 
12608 0 3 14.5 2.24719 24.125 
170 0 3 15.7726 2.45282 22.5967 
2747 0 3 15.5092 2.47178 23.6714 
12461 0 3 12.5658 4.98374 23.648 
5315 0 3 16.4377 3.84079 24.3239 
15312 0 3 15.9242 3.41814 25.485 
5744 0 3 15.5208 1.07219 26.7226 
15864 0 3 16.9322 5.79554 27.1143 
25143 0 3 14.6002 1.23114 31.5814 
6272 0 3 12.3481 7.18767 2.05606 
3942 0 3 14.0292 6.9393 3.38335 
23940 0 3 15.6367 7.23014 5.046 
15691 0 3 14.1246 8.38648 4.76268 
2855 0 3 16.2091 8.2382 7.90488 
21493 0 3 13.1631 10.5136 7.249 
16421 0 3 12.9532 9.4047 8.94252 
25238 0 3 12.5967 11.5198 9.678 
21196 0 3 15.5763 10.0171 10.0755 
16878 0 3 14.3841 6.55564 12.5108 
23869 0 3 15.0188 10.4115 12.1972 
8698 0 3 12.1261 10.4829 14.9819 
16530 0 3 13.3744 6.9002 16.8581 
22269 0 3 12.041 11.4444 16.4894 
16826 0 3 11.7124 6.97646 18.3448 
10740 0 3 11.8585 8.10328 18.1126 
21061 0 3 13.9391 10.5595 18.4567 
9168 0 3 15.4204 11.4954 19.2854 
23489 0 3 11.991 10.4278 23.3732 
5974 0 3 15.2903 8.57109 24.8149 
4547 0 3 13.3523 10.4996 24.6671 
1327 0 3 16.1367 7.68596 26.5952 
7293 0 3 14.1439 11.4628 26.9981 
26823 0 3 16.6106 10.4386 26.3999 
16921 0 3 15.3048 10.2441 28.85 
6848 0 3 12.1858 12.6979 2.27758 
1228 0 3 13.2908 11.8333 3.58312 
17882 0 3 13.7722 11.7294 6.02517 
5402 0 3 11.8249 14.1253 5.47134 
8149 0 3 15.7514 13.287 7.75387 
24329 0 3 11.6923 12.1265 8.15112 
10035 0 3 14.663 16.0972 8.87434 
24768 0 3 16.7533 12.27 10.5437 
6641 0 3 13.2759 14.8993 11.9663 
10376 0 3 16.274 14.5113 11.9342 
10811 0 3 16.122 16.8622 12.7674 
19188 0 3 16.879 15.8138 13.0626 
7179 0 3 13.7975 14.1599 14.4778 
25803 0 3 11.9128 15.9819 16.4123 
5729 0 3 14.0946 15.3035 16.716 
23948 0 3 13.8539 11.6182 18.6307 
7532 0 3 16.478 15.0278 18.0325 
5124 0 3 11.6003 15.1149 19.6354 
7265 0 3 15.2388 14.1582 21.9736 
14499 0 3 15.41 15.5483 20.6413 
18355 0 3 15.44 16.2133 25.8998 
3373 0 3 12.6307 13.3137 29.562 
25209 0 3 11.9642 19.2749 1.23997 
4422 0 3 11.7263 20.4173 1.60143 
3359 0 3 16.651 20.063 4.14724 
2435 0 3 13.4859 21.419 4.24485 
18953 0 3 13.3722 18.9965 5.17801 
14299 0 3 14.2367 18.8351 5.8502 
20569 0 3 15.0183 21.2316 6.02965 
4800 0 3 15.9439 18.0716 6.24731 
23189 0 3 16.6018 20.0594 6.82154 
9305 0 3 15.4922 19.7661 7.32478 
20585 0 3 13.6933 20.7828 7.99936 
15919 0 3 14.7555 20.7549 9.35887 
19632 0 3 12.8348 18.7137 11.5551 
13266 0 3 11.7834 19.0651 10.9713 
14434 0 3 16.8311 22.0369 12.0011 
4460 0 3 15.9507 17.2112 14.1528 
24298 0 3 16.5213 20.8636 14.0208 
5971 0 3 14.5099 18.0841 21.778 
13336 0 3 16.0387 21.5815 21.6987 
23884 0 3 16.2071 22.3625 20.7932 
14840 0 3 16.3484 19.8744 22.6462 
18621 0 3 14.6901 21.6544 23.0844 
15479 0 3 15.298 17.0941 25.025 
22668 0 3 14.6214 19.1392 25.1103 
10356 0 3 13.0908 20.7324 25.4194 
6557 0 3 12.077 18.7201 26.0471 
3772 0 3 15.2556 17.0868 28.1394 
4541 0 3 15.8138 20.3281 29.6225 
4785 0 3 12.16 20.5537 30.741 
24280 0 3 16.2189 21.5088 30.2853 
25470 0 3 16.0941 20.1651 32.729 
18544 0 3 12.7305 23.0983 1.46001 
6224 0 3 13.8822 25.5338 0.930587 
12821 0 3 16.0502 25.3626 2.46462 
15108 0 3 16.502 26.6616 2.36739 
23255 0 3 12.0892 27.645 5.92641 
9625 0 3 13.4552 26.128 13.5362 
24188 0 3 15.8821 27.2826 14.5628 
7536 0 3 16.9292 22.6342 16.975 
12171 0 3 16.7227 25.5068 15.9098 
3 0 3 15.6973 24.6989 18.3863 
7595 0 3 14.4997 27.2865 18.3611 
4199 0 3 15.973 23.3159 19.8615 
5447 0 3 13.9987 23.7506 20.7397 
22529 0 3 15.6524 25.7042 23.3443 
8447 0 3 11.6249 27.5947 22.9284 
1366 0 3 15.0537 25.4811 24.3692 
11916 0 3 16.9849 27.6371 26.3207 
11958 0 3 14.1957 22.9942 28.7781 
4519 0 3 12.5631 25.1274 28.1638 
26000 0 3 15.1733 26.0985 28.1842 
23421 0 3 16.5643 23.2838 30.5018 
26291 0 3 15.8296 24.8021 30.794 
13174 0 3 12.9133 22.6075 32.8919 
8214 0 3 16.197 23.4778 32.9423 
8055 0 3 11.9909 24.6891 33.1285 
7765 0 3 14.1509 27.0496 31.9524 
13796 0 3 15.9291 31.6861 2.45955 
20902 0 3 16.1369 30.8586 4.93746 
23150 0 3 13.4791 30.5476 9.35419 
24779 0 3 13.9894 29.6935 10.0302 
6350 0 3 15.5552 30.2539 11.543 
24108 0 3 15.3576 33.1867 12.3728 
26946 0 3 12.386 30.3139 14.027 
5710 0 3 16.424 30.966 13.559 
21410 0 3 16.2336 28.0134 15.2995 
18765 0 3 12.0198 29.0731 17.8627 
1772 0 3 14.34 29.6309 17.0785 
9712 0 3 12.0515 31.2001 17.3061 
19998 0 3 14.3208 30.9143 17.456 
4875 0 3 14.6419 28.4254 21.3064 
3345 0 3 13.7863 30.7619 22.5607 
22173 0 3 12.331 29.9524 24.3476 
24493 0 3 14.888 27.9165 27.1685 
15281 0 3 16.6808 28.8588 31.0318 
10228 0 3 16.0959 28.1019 30.249 
21910 0 3 14.0023 28.1379 31.5699 
12411 0 3 18.1788 1.46346 3.76972 
19849 0 3 18.3487 2.45488 3.54004 
5246 0 3 20.6902 1.94647 3.12785 
26633 0 3 18.4775 5.17226 3.37543 
8855 0 3 20.6234 2.03326 5.44363 
25995 0 3 21.2957 2.63038 5.74984 
15964 0 3 17.3626 6.08767 5.18502 
15278 0 3 18.3402 4.34525 6.77436 
8504 0 3 22.3212 4.08739 7.28239 
22398 0 3 17.9492 5.36752 9.37581 
24544 0 3 20.5792 3.2831 14.1146 
14436 0 3 22.1685 3.8593 14.9948 
4504 0 3 18.7138 4.959 19.4985 
7914 0 3 17.6919 3.03051 21.6767 
17744 0 3 18.118 4.50329 22.0847 
6801 0 3 19.4375 5.84117 20.8187 
17491 0 3 17.1259 3.11101 23.7505 
9374 0 3 20.5406 5.46116 25.8771 
15583 0 3 18.8204 3.42322 27.7783 
7712 0 3 20.5766 1.90969 28.7285 
4212 0 3 19.3526 3.68852 30.2408 
4247 0 3 18.3006 5.53136 30.4844 
10790 0 3 19.3662 5.35607 31.283 
3800 0 3 20.7706 3.01431 32.1541 
6191 0 3 17.1198 9.61538 2.17355 
11554 0 3 20.1302 10.1949 2.36697 
11806 0 3 21.2932 7.66835 2.60162 
4713 0 3 19.5746 9.94649 3.21122 
4037 0 3 21.8746 9.88964 3.92291 
9768 0 3 17.7869 9.51993 5.54745 
18550 0 3 19.3071 8.84611 4.45391 
10011 0 3 19.2772 10.0878 4.44999 
726 0 3 21.0679 10.7339 5.43905 
6862 0 3 22.1963 7.58748 6.72235 
5497 0 3 19.8608 9.58758 6.58108 
2053 0 3 18.945 9.87895 7.14088 
23717 0 3 17.3351 10.274 8.62127 
13790 0 3 21.8386 10.7648 9.26441 
16277 0 3 17.0612 7.66305 11.5044 
13486 0 3 18.7232 8.59833 10.1875 
8679 0 3 21.3343 8.97877 10.6433 
644 0 3 21.5401 8.31126 14.5756 
14743 0 3 22.1915 11.0324 16.9825 
10201 0 3 19.1149 8.30464 18.2177 
5567 0 3 17.2251 6.38631 20.0618 
5326 0 3 19.8062 9.02257 19.517 
16861 0 3 20.8799 7.44659 21.9532 
10692 0 3 19.9365 9.6081 22.314 
23179 0 3 20.2975 10.4401 23.5891 
10682 0 3 17.8424 9.43695 26.9384 
26644 0 3 20.1643 8.62187 26.8454 
8904 0 3 21.4411 8.75619 28.1958 
20281 0 3 17.1094 10.4488 29.3238 
11333 0 3 21.892 13.2276 1.76347 
15963 0 3 19.7135 13.7132 1.85868 
17265 0 3 19.6646 16.6133 1.01538 
6601 0 3 21.0373 16.2518 0.935604 
2628 0 3 20.0039 12.8496 3.66648 
22708 0 3 18.4801 16.9033 3.00027 
26506 0 3 22.2973 15.2401 5.67564 
19369 0 3 20.5329 13.1144 8.75228 
8329 0 3 22.2757 12.4814 9.2611 
9778 0 3 18.078 15.461 8.31948 
13769 0 3 20.4914 15.2863 13.297 
11779 0 3 18.0757 14.9807 16.4041 
8643 0 3 19.1219 13.9104 17.8238 
11543 0 3 17.1608 12.5201 19.095 
23872 0 3 21.2979 12.4824 22.0231 
9468 0 3 21.9172 14.4548 22.1251 
19060 0 3 19.4817 16.1569 24.7749 
23734 0 3 17.2065 12.9677 26.3009 
19497 0 3 19.5486 14.8767 26.2277 
9829 0 3 22.2685 15.5857 26.5961 
19368 0 3 22.2997 14.8065 31.1759 
482 0 3 20.8764 17.9121 3.71323 
18948 0 3 18.4213 20.1213 4.25387 
14455 0 3 18.8174 22.0131 6.0191 
14218 0 3 18.1271 18.009 7.31174 
14572 0 3 20.2119 17.7779 7.96142 
26111 0 3 20.78 17.5778 6.90138 
14594 0 3 21.9738 19.871 7.51009 
4332 0 3 19.8799 21.7817 7.43666 
3687 0 3 17.0092 18.2616 10.0854 
14347 0 3 22.1924 18.1862 11.5457 
15409 0 3 20.3084 19.3012 11.4372 
5349 0 3 21.0334 17.3115 11.7386 
17330 0 3 17.5163 21.2128 13.2896 
6296 0 3 20.619 19.7528 14.8345 
2128 0 3 17.9107 18.4422 15.6111 
26576 0 3 18.0778 19.8136 16.8241 
7262 0 3 20.3163 22.2031 16.8203 
15349 0 3 19.4783 18.9125 17.5789 
21560 0 3 17.6212 17.4922 21.5601 
5982 0 3 20.2969 17.683 23.6296 
11839 0 3 21.7866 17.3824 24.2832 
24416 0 3 18.3064 18.5951 26.5265 
20568 0 3 17.1429 20.0723 26.0901 
9716 0 3 19.435 22.2977 27.4952 
26199 0 3 19.5244 21.2554 30.1417 
23243 0 3 20.0287 18.0294 31.5556 
8058 0 3 21.1332 19.0815 31.939 
25005 0 3 18.5424 21.5805 32.5865 
909 0 3 20.1147 24.0448 4.30418 
4535 0 3 20.2476 25.7803 3.00936 
3815 0 3 17.1599 27.3407 4.19801 
20929 0 3 20.4832 27.464 4.14137 
25668 0 3 19.2198 24.747 6.1058 
157 0 3 17.2159 24.5597 6.68874 
12916 0 3 21.9429 24.4836 7.61787 
8998 0 3 19.917 27.3609 6.88712 
12978 0 3 17.8682 24.499 9.49243 
573 0 3 20.9298 23.2144 11.5207 
13049 0 3 19.0589 25.8517 10.726 
10797 0 3 19.6804 27.6566 10.5569 
1618 0 3 21.1707 26.8461 10.9221 
19486 0 3 19.9995 24.5953 13.0016 
13754 0 3 18.3507 26.0601 12.2959 
23702 0 3 19.1841 27.4944 13.5362 
21696 0 3 20.6207 24.4574 16.2729 
16313 0 3 18.6419 27.3197 18.008 
4897 0 3 19.5091 25.9265 21.0392 
18964 0 3 17.0047 27.5194 21.9885 
11818 0 3 19.1144 24.3981 23.2019 
14275 0 3 21.6953 26.0415 23.9152 
17802 0 3 18.1246 26.5398 24.9519 
8848 0 3 22.0128 24.2689 26.36 
4045 0 3 20.1178 23.1891 28.7877 
22075 0 3 19.5216 26.276 28.5375 
13384 0 3 18.2683 25.4513 30.843 
9171 0 3 17.1968 26.0552 29.828 
19320 0 3 21.0198 26.3282 29.7112 
5453 0 3 17.1011 28.8859 4.23967 
2684 0 3 17.3858 32.685 7.65997 
15894 0 3 19.6769 29.8868 8.08978 
21387 0 3 17.6487 32.911 9.38733 
4407 0 3 18.8255 30.3433 11.0016 
6952 0 3 19.9531 31.9304 12.5274 
11326 0 3 18.8287 31.8132 14.0186 
22014 0 3 21.9769 32.5899 14.7666 
20014 0 3 20.9227 28.2342 16.0631 
6387 0 3 21.4675 31.7793 16.7757 
24345 0 3 19.5647 29.5747 17.8024 
2906 0 3 21.2086 30.4945 18.5362 
24226 0 3 22.3905 33.1119 19.9477 
9006 0 3 20.3168 32.5932 21.1199 
24227 0 3 19.8092 28.2986 22.9523 
22178 0 3 20.7285 31.4417 23.7073 
1624 0 3 17.7343 28.4456 25.3153 
19263 0 3 17.3994 30.6044 26.1105 
8664 0 3 17.8135 32.7169 29.5739 
23099 0 3 21.5282 33.0443 28.1629 
9465 0 3 24.6756 1.35361 2.27868 
19467 0 3 24.0736 5.78943 1.78372 
23103 0 3 22.8428 4.9034 3.39351 
12008 0 3 24.0658 3.6232 5.7118 
16564 0 3 24.596 2.83182 4.3782 
13620 0 3 26.5913 6.15436 5.35913 
8749 0 3 24.9771 1.51028 9.13975 
8282 0 3 23.4148 5.48331 9.5903 
25674 0 3 25.8201 5.30136 9.15303 
22537 0 3 25.6253 1.94979 10.9756 
10619 0 3 25.2822 4.76006 12.8503 
22523 0 3 24.5464 1.91164 14.5757 
4922 0 3 25.9262 2.16682 15.6545 
269 0 3 27.334 1.68673 16.1982 
21953 0 3 25.2741 5.24095 15.4132 
9270 0 3 25.9745 3.70029 18.4362 
12079 0 3 23.7834 5.21755 17.6917 
1613 0 3 23.366 1.32237 19.887 
7101 0 3 26.2696 1.50808 19.0853 
4731 0 3 27.2637 1.72912 19.7802 
15898 0 3 25.8743 4.54288 19.353 
21125 0 3 23.3056 3.76639 24.1885 
10595 0 3 26.3399 5.9435 23.8385 
24115 0 3 24.1841 3.33864 26.9854 
25090 0 3 22.8184 2.74081 27.2579 
6315 0 3 23.38 3.97494 29.2262 
24730 0 3 26.1248 2.31087 29.6683 
21219 0 3 22.6959 2.94798 30.199 
10088 0 3 26.3563 3.41943 30.0519 
18942 0 3 25.2463 4.52601 30.7893 
6009 0 3 25.3825 6.20544 0.979116 
17767 0 3 26.2397 7.2174 5.24219 
5206 0 3 22.9399 6.91326 7.01462 
18700 0 3 23.2187 7.98531 6.35041 
18003 0 3 25.1018 10.2465 6.86949 
24986 0 3 23.8689 9.28413 9.27914 
17177 0 3 24.8517 9.52303 9.65194 
5556 0 3 26.7731 11.5364 8.60728 
23359 0 3 23.9445 9.50365 13.284 
23768 0 3 25.8262 8.03032 11.914 
3918 0 3 27.5699 11.4915 12.8051 
21553 0 3 25.6235 6.79166 13.8551 
701 0 3 27.3898 7.3999 14.5842 
26509 0 3 26.2713 8.48035 13.9056 
21867 0 3 27.7015 10.4455 14.0493 
188 0 3 27.5476 10.2505 16.4658 
19507 0 3 25.9483 9.46619 19.5852 
19059 0 3 27.3371 8.32758 24.6665 
17667 0 3 22.8993 10.9219 25.7181 
12535 0 3 25.9874 11.4939 24.3205 
21185 0 3 24.7418 8.34108 26.3731 
7825 0 3 23.7361 6.77273 28 
606 0 3 24.5671 13.6763 0.865023 
22845 0 3 26.3659 13.6343 1.64852 
21949 0 3 26.4357 14.4842 2.3264 
21178 0 3 26.6926 11.6722 2.81127 
10084 0 3 26.7453 15.9275 3.8455 
13340 0 3 27.8108 14.8483 5.66465 
1661 0 3 24.1181 16.5813 4.76137 
13772 0 3 25.1579 12.6487 8.63004 
3607 0 3 27.6662 12.817 9.22965 
4170 0 3 24.1549 15.1443 8.05961 
15271 0 3 22.6867 14.4877 9.92131 
6826 0 3 27.451 12.3505 13.7432 
22260 0 3 27.8225 13.3873 13.5025 
23356 0 3 26.2266 15.7295 14.3438 
22187 0 3 27.6807 16.5899 13.5946 
13035 0 3 23.3308 13.0893 16.0124 
20492 0 3 23.2893 14.4556 15.5867 
16700 0 3 25.3837 16.9542 16.2268 
17113 0 3 23.1436 12.8182 17.8279 
200 0 3 24.3818 12.5905 17.2528 
18798 0 3 22.5819 15.8431 17.2756 
10320 0 3 26.9185 14.6909 20.3864 
4342 0 3 24.0218 16.083 19.1861 
5210 0 3 24.4733 12.5057 20.8045 
26933 0 3 22.9132 12.2319 23.6127 
20107 0 3 27.7106 14.8424 23.8763 
21892 0 3 27.6847 16.9001 23.7657 
7687 0 3 22.9787 13.5993 24.7986 
26256 0 3 25.2889 16.7653 29.1091 
19614 0 3 22.9835 15.6863 29.807 
11250 0 3 27.3218 15.1354 32.8667 
21764 0 3 22.9801 17.958 2.11004 
2371 0 3 24.7951 19.2243 3.54598 
24732 0 3 23.74 22.3415 3.71562 
2420 0 3 24.8231 18.4583 5.97061 
7109 0 3 27.2467 21.2825 10.8005 
12953 0 3 22.4517 20.5134 12.1773 
19118 0 3 24.2305 22.0428 12.848 
11699 0 3 26.2636 21.7584 13.0806 
9415 0 3 27.1652 18.6049 15.2103 
5524 0 3 23.9413 18.9047 16.807 
12077 0 3 23.1882 17.9149 19.5687 
14247 0 3 25.0778 19.3623 25.1912 
265 0 3 22.8194 22.1704 26.4821 
2716 0 3 23.1831 21.9096 27.5955 
14360 0 3 23.1963 21.2412 32.4708 
5795 0 3 22.9817 23.067 0.75461 
15209 0 3 27.3907 24.7706 1.40936 
12792 0 3 27.1992 24.2262 5.93389 
24915 0 3 23.7543 24.6717 5.61962 
10169 0 3 22.6148 22.6637 6.26957 
26514 0 3 23.3494 27.8411 6.8411 
494 0 3 26.9303 26.5282 6.72356 
23933 0 3 23.1614 24.1502 9.25479 
14707 0 3 23.4601 26.3055 8.30862 
19153 0 3 26.5189 25.2522 10.608 
4664 0 3 23.1197 26.1662 11.433 
25305 0 3 24.4435 26.3953 11.4596 
5437 0 3 24.37 27.4571 10.6118 
20460 0 3 23.3848 22.6373 13.7435 
24086 0 3 25.7154 23.42 13.5717 
14922 0 3 26.4928 24.2335 13.5599 
14070 0 3 23.1968 27.6358 14.2028 
6211 0 3 22.9375 25.1797 18.1578 
11870 0 3 23.0318 22.9039 18.884 
6280 0 3 25.6801 23.9501 19.7581 
70 0 3 25.815 27.2947 22.3358 
18079 0 3 26.6636 24.3178 24.812 
3195 0 3 23.2014 24.1394 27.1153 
9718 0 3 25.0385 27.28 27.027 
503 0 3 25.9131 22.6791 29.2578 
19945 0 3 25.3716 27.293 28.0549 
22500 0 3 27.0062 25.3288 30.9084 
18631 0 3 24.2635 26.2967 29.6809 
4589 0 3 27.3794 30.5322 0.789787 
22790 0 3 23.1949 31.6466 3.83199 
12615 0 3 26.5708 33.1046 5.04074 
7444 0 3 22.8991 29.7849 7.67131 
9459 0 3 26.5262 30.9986 7.55377 
25632 0 3 23.8732 33.2539 7.63195 
13517 0 3 24.9962 28.1073 8.33941 
24155 0 3 23.6181 30.8069 12.0518 
16829 0 3 26.971 31.1146 12.366 
20639 0 3 24.2632 33.0419 19.8775 
14660 0 3 24.9424 30.4357 21.8734 
22387 0 3 23.1007 27.9421 23.0116 
9144 0 3 26.7297 30.8839 23.7169 
24441 0 3 24.6916 32.6609 23.3463 
21890 0 3 24.3496 27.9223 25.7193 
13191 0 3 26.4847 28.6651 25.8589 
25496 0 3 23.534 31.3266 25.3002 
3921 0 3 23.541 30.2673 28.7477 
513 0 3 26.3522 29.8441 30.3018 
2570 0 3 29.7754 5.9219 2.6882 
12989 0 3 31.9501 5.56363 3.96224 
16264 0 3 28.6631 2.40544 4.38063 
2542 0 3 31.9147 2.38232 4.94135 
5044 0 3 31.9977 0.814934 6.03942 
20975 0 3 32.9406 2.93582 7.65779 
24531 0 3 29.0258 1.09556 9.4545 
1629 0 3 28.0082 2.79801 9.63058 
12797 0 3 30.2864 2.63015 8.64346 
13036 0 3 29.9386 5.84621 9.24375 
2190 0 3 30.4323 4.80689 9.73876 
10904 0 3 32.6953 5.27037 9.14963 
4420 0 3 30.8941 3.94032 9.84598 
1232 0 3 29.1372 5.07613 11.1053 
2483 0 3 28.7189 2.34316 12.6615 
9286 0 3 31.0469 3.64848 12.6721 
5936 0 3 31.1607 2.54444 15.1553 
15050 0 3 28.3762 6.13849 16.238 
2701 0 3 28.9092 3.20239 17.1754 
25659 0 3 30.771 4.51827 20.3055 
20942 0 3 29.2276 3.25591 22.0489 
24178 0 3 28.763 2.53351 23.9636 
16961 0 3 32.8808 1.61427 23.156 
6520 0 3 29.2936 2.35116 25.0838 
22756 0 3 31.6597 2.02166 27.0433 
9281 0 3 33.2305 4.94595 26.3976 
22335 0 3 29.0132 4.71416 28.8667 
15061 0 3 29.2114 2.40168 30.9404 
11697 0 3 32.373 1.92277 30.8708 
1288 0 3 29.6443 8.2284 1.58201 
13536 0 3 30.9973 6.65302 7.53324 
11737 0 3 32.5677 7.45588 7.19123 
26376 0 3 29.2326 8.05748 7.33313 
18976 0 3 30.9827 8.79629 7.14127 
20091 0 3 33.1522 10.5208 7.93682 
12173 0 3 31.373 9.91899 8.96029 
25300 0 3 30.6819 9.14334 10.4366 
12073 0 3 32.0214 8.55331 10.2966 
10687 0 3 28.6413 11.2223 12.5574 
1272 0 3 30.634 7.52742 14.3855 
13741 0 3 30.1226 9.58398 14.9547 
15196 0 3 32.951 10.5103 16.8454 
9329 0 3 29.9041 6.96689 17.0835 
5792 0 3 29.0521 10.9411 17.1078 
12409 0 3 31.2778 6.54164 20.1753 
4315 0 3 28.8849 8.18098 20.4727 
21143 0 3 29.8238 8.09697 18.9847 
7354 0 3 28.257 10.2823 19.8955 
13775 0 3 29.5718 7.53961 22.3126 
9296 0 3 32.998 7.22032 22.2417 
4709 0 3 30.8298 9.85788 21.9293 
25449 0 3 29.9635 6.31675 23.9774 
2660 0 3 30.3234 9.92155 22.8491 
26626 0 3 33.0276 10.3124 23.7736 
2051 0 3 29.7078 7.24263 24.8882 
20957 0 3 32.6391 11.1757 24.3316 
7809 0 3 32.8291 8.03984 26.0641 
14006 0 3 28.1215 7.72442 28.7679 
14469 0 3 30.9179 7.93954 28.0446 
16021 0 3 31.5356 11.5724 29.8424 
3113 0 3 29.4308 6.39573 33.0938 
23428 0 3 31.3051 12.6934 1.73679 
9311 0 3 30.9153 16.1882 2.14127 
22146 0 3 31.999 14.3806 2.78575 
4778 0 3 29.4811 11.7665 5.1987 
16256 0 3 32.8254 16.5243 5.26112 
10474 0 3 30.6302 11.8916 9.58637 
10963 0 3 31.9942 11.8915 12.1678 
1929 0 3 30.458 13.515 14.4425 
2926 0 3 33.1174 13.6863 15.1165 
25767 0 3 29.9869 11.9556 17.2276 
7565 0 3 30.9577 13.182 18.8089 
20490 0 3 29.8552 13.4961 20.2073 
25080 0 3 31.4462 15.616 20.1216 
5893 0 3 29.367 13.3728 21.0705 
22200 0 3 30.7407 15.3469 25.8253 
24586 0 3 33.0772 14.2254 31.0673 
16913 0 3 30.4446 13.7865 33.0082 
4802 0 3 30.3869 18.9873 2.40414 
10199 0 3 28.872 17.9229 3.32578 
19582 0 3 31.5661 17.1418 3.74782 
9283 0 3 31.9451 20.4465 2.77561 
22059 0 3 28.1297 21.6509 4.07713 
9612 0 3 32.0853 21.8636 6.58771 
5966 0 3 31.666 19.9365 8.25721 
15883 0 3 30.6853 20.115 11.1979 
20906 0 3 30.076 20.823 10.4091 
337 0 3 28.6793 22.3249 13.2426 
2753 0 3 32.2614 20.1913 15.2682 
7857 0 3 31.5305 18.2161 18.7611 
8097 0 3 30.5436 19.525 19.2004 
1011 0 3 29.5904 17.5662 22.4066 
12950 0 3 31.8269 20.6079 20.8936 
16489 0 3 31.9327 19.5146 21.0101 
17828 0 3 31.9574 19.8385 25.9188 
1662 0 3 28.6287 18.0248 27.0486 
2313 0 3 28.1849 20.0075 26.2307 
7428 0 3 31.8828 20.4649 26.7513 
2056 0 3 31.1763 17.7434 30.3462 
22800 0 3 29.5745 25.3949 2.48815 
2574 0 3 30.1379 22.6027 4.28047 
695 0 3 32.9058 24.078 4.34303 
23406 0 3 30.4776 24.5521 5.59109 
3256 0 3 32.8276 27.0457 6.04019 
8406 0 3 28.518 22.7738 8.40647 
26397 0 3 28.2017 27.2987 8.50371 
19759 0 3 30.1391 24.117 10.8358 
8636 0 3 28.4743 27.6283 9.77628 
23303 0 3 31.3314 27.0454 10.9846 
20015 0 3 31.7525 25.1819 12.9838 
2130 0 3 31.1129 23.0516 13.4907 
2406 0 3 32.4654 24.363 14.643 
8628 0 3 29.7971 26.7584 13.97 
21707 0 3 32.7618 25.1276 15.8853 
26048 0 3 29.9064 23.3401 19.887 
6286 0 3 29.4722 24.8996 18.844 
19061 0 3 30.4052 24.4478 19.3296 