LAMMPS (3 Mar 2020)
OMP_NUM_THREADS environment is not set. Defaulting to 1 thread. (src/comm.cpp:94)
  using 1 OpenMP thread(s) per MPI task
Reading restart file ...
  restart file = 3 Mar 2020, LAMMPS = 3 Mar 2020
  restoring atom style full from restart
  orthogonal box = (0.73598 0.73598 0.73598) to (33.264 33.264 33.264)
  6 by 6 by 6 MPI processor grid
  restoring pair style hybrid/overlay from restart
  restoring bond style fene from restart
  27950 atoms
  8700 bonds
Finding 1-2 1-3 1-4 neighbors ...
  special bond factors lj:   0          1          1         
  special bond factors coul: 0          1          1         
  2 = max # of 1-2 neighbors
  6 = max # of special neighbors
  special bonds CPU = 2.43297 secs
  read_restart CPU = 2.59026 secs
Resetting global fix info from restart file:
  fix style: nvt, fix ID: pt
50 rigid bodies with 950 atoms
Resetting global fix info from restart file:
  fix style: rigid/nvt, fix ID: ri
System init for write_data ...
PPPM initialization ...
  using 12-bit tables for long-range coulomb (src/kspace.cpp:332)
  G vector (1/distance) = 1.14923
  grid = 90 90 90
  stencil order = 5
  estimated absolute RMS force accuracy = 0.00011112
  estimated relative force accuracy = 0.00011112
  using double precision FFTW3
  3d grid and FFT values/proc = 8000 3600
All restart file global fix info was re-assigned
Unused restart file peratom fix info:
  fix style: STORE, fix ID: par_COMPUTE_STORE
WARNING: Neighbor exclusions used with KSpace solver may give inconsistent Coulombic energies (src/neighbor.cpp:486)
Neighbor list info ...
  update every 1 steps, delay 0 steps, check yes
  max neighbors/atom: 2000, page size: 100000
  master list distance cutoff = 2.8
  ghost atom cutoff = 2.8
  binsize = 1.4, bins = 24 24 24
  2 neighbor lists, perpetual/occasional/extra = 2 0 0
  (1) pair lj/cut, perpetual
      attributes: half, newton on
      pair build: half/bin/newton
      stencil: half/bin/3d/newton
      bin: standard
  (2) pair coul/long, perpetual, skip from (1)
      attributes: half, newton on
      pair build: skip
      stencil: none
      bin: none
PPPM initialization ...
  using 12-bit tables for long-range coulomb (src/kspace.cpp:332)
  G vector (1/distance) = 1.14923
  grid = 90 90 90
  stencil order = 5
  estimated absolute RMS force accuracy = 0.00011112
  estimated relative force accuracy = 0.00011112
  using double precision FFTW3
  3d grid and FFT values/proc = 8000 3600
WARNING: Neighbor exclusions used with KSpace solver may give inconsistent Coulombic energies (src/neighbor.cpp:486)
Neighbor list info ...
  update every 1 steps, delay 0 steps, check yes
  max neighbors/atom: 2000, page size: 100000
  master list distance cutoff = 2.8
  ghost atom cutoff = 2.8
  binsize = 1.4, bins = 24 24 24
  2 neighbor lists, perpetual/occasional/extra = 2 0 0
  (1) pair lj/cut, perpetual
      attributes: half, newton on
      pair build: half/bin/newton
      stencil: half/bin/3d/newton
      bin: standard
  (2) pair coul/long, perpetual, skip from (1)
      attributes: half, newton on
      pair build: skip
      stencil: none
      bin: none
Setting up Verlet run ...
  Unit style    : lj
  Current step  : 12000000
  Time step     : 0.005
Per MPI rank memory allocation (min/avg/max) = 10.14 | 10.16 | 10.29 Mbytes
Step Temp Press Volume 
12000000   0.80196229  -0.46271053    34417.053 
12010000   0.79785852  -0.23696112    34417.053 
12020000   0.80158142  -0.21195004    34417.053 
12030000   0.80309574  -0.19505691    34417.053 
12040000   0.79939583   -0.2078873    34417.053 
12050000    0.8004253  -0.18291701    34417.053 
12060000   0.80473174  -0.24777342    34417.053 
12070000   0.80021473  -0.20295163    34417.053 
12080000    0.7958938  -0.18131041    34417.053 
12090000    0.8103499  -0.24402703    34417.053 
12100000   0.80281229  -0.16389114    34417.053 
12110000   0.79641272  -0.21413603    34417.053 
12120000   0.79673884  -0.19744913    34417.053 
12130000   0.78818411  -0.18301569    34417.053 
12140000   0.79713036   -0.2549408    34417.053 
12150000   0.79316161  -0.18563937    34417.053 
12160000   0.79810699  -0.22496816    34417.053 
12170000   0.79738629  -0.18561632    34417.053 
12180000   0.80005197  -0.24253042    34417.053 
12190000   0.80717844  -0.20907636    34417.053 
12200000   0.80961035  -0.21698621    34417.053 
12210000   0.80176351  -0.21505703    34417.053 
12220000   0.80112214  -0.22730038    34417.053 
12230000   0.80092956  -0.19610731    34417.053 
12240000   0.80108475  -0.21667235    34417.053 
12250000   0.80073476  -0.17706224    34417.053 
12260000   0.80227541  -0.19918303    34417.053 
12270000   0.79735175   -0.2622425    34417.053 
12280000   0.79945588  -0.14880142    34417.053 
12290000   0.79783805  -0.14190765    34417.053 
12300000   0.79909554  -0.19295008    34417.053 
12310000   0.80621212   -0.1359486    34417.053 
12320000   0.80020614  -0.15403325    34417.053 
12330000   0.79867967   -0.2806408    34417.053 
12340000   0.80374374  -0.17614728    34417.053 
12350000   0.80188708  -0.21117734    34417.053 
12360000   0.79763586  -0.14924328    34417.053 
12370000   0.80178789  -0.19929821    34417.053 
12380000   0.80366335  -0.17033114    34417.053 
12390000   0.80187286  -0.20929048    34417.053 
12400000   0.80741301  -0.20162623    34417.053 
12410000    0.7968131  -0.19354573    34417.053 
12420000   0.79535358  -0.22990144    34417.053 
12430000   0.79365571  -0.17587942    34417.053 
12440000   0.80507455  -0.17725908    34417.053 
12450000    0.7898109  -0.15245904    34417.053 
12460000   0.80511312  -0.12191818    34417.053 
12470000    0.8036503  -0.14778176    34417.053 
12480000   0.80231919  -0.19433839    34417.053 
12490000   0.79869927  -0.19507556    34417.053 
12500000   0.79893391  -0.18868028    34417.053 
12510000   0.80557478  -0.19513372    34417.053 
12520000   0.80869611  -0.19523757    34417.053 
12530000   0.80124184  -0.24667124    34417.053 
12540000   0.79808276  -0.19545586    34417.053 
12550000   0.80417591  -0.13729764    34417.053 
12560000   0.79782093  -0.23106975    34417.053 
12570000   0.80033514  -0.22182014    34417.053 
12580000   0.79873583  -0.19512559    34417.053 
12590000   0.79578963  -0.18849083    34417.053 
12600000   0.79604507  -0.25727028    34417.053 
12610000   0.80375943  -0.18655897    34417.053 
12620000   0.79611733  -0.21788011    34417.053 
12630000   0.79872137  -0.23039392    34417.053 
12640000   0.80039761  -0.25893302    34417.053 
12650000   0.80075292  -0.16230783    34417.053 
12660000    0.8018104  -0.20815546    34417.053 
12670000   0.79871827  -0.18068688    34417.053 
12680000   0.80065382  -0.14790083    34417.053 
12690000   0.79907077  -0.20626385    34417.053 
12700000   0.80518591  -0.11423388    34417.053 
12710000    0.8037828  -0.15396563    34417.053 
12720000    0.7959657   -0.1360723    34417.053 
12730000   0.78970469  -0.31813183    34417.053 
12740000   0.79882227   -0.1879752    34417.053 
12750000   0.79317282  -0.18226979    34417.053 
12760000   0.80682712   -0.2353342    34417.053 
12770000    0.7981574    -0.139803    34417.053 
12780000   0.80388345  -0.19261294    34417.053 
12790000   0.80421049  -0.19249786    34417.053 
12800000   0.80060064  -0.23336586    34417.053 
12810000   0.79523432  -0.26885226    34417.053 
12820000   0.79731765  -0.21230777    34417.053 
12830000   0.79794709  -0.26727783    34417.053 
12840000   0.79930703  -0.21856414    34417.053 
12850000   0.79945155  -0.22217055    34417.053 
12860000   0.79464454  -0.20850326    34417.053 
12870000   0.79906499  -0.19511319    34417.053 
12880000   0.79307358  -0.11095691    34417.053 
12890000   0.79341028   -0.2415665    34417.053 
12900000   0.79484064  -0.23733376    34417.053 
12910000   0.80486363  -0.20205807    34417.053 
12920000   0.80197933  -0.14410433    34417.053 
12930000   0.80728481  -0.21040099    34417.053 
12940000   0.79563763  -0.11766441    34417.053 
12950000    0.8014342   -0.2186246    34417.053 
12960000    0.8060515  -0.18715428    34417.053 
12970000   0.80020708  -0.24225338    34417.053 
12980000   0.79797405  -0.19355825    34417.053 
12990000    0.7996133  -0.17551546    34417.053 
13000000   0.79986505  -0.19966044    34417.053 
Loop time of 8964.84 on 216 procs for 1000000 steps with 27950 atoms

Performance: 48188.269 tau/day, 111.547 timesteps/s
99.9% CPU use with 216 MPI tasks x 1 OpenMP threads

MPI task timing breakdown:
Section |  min time  |  avg time  |  max time  |%varavg| %total
---------------------------------------------------------------
Pair    | 87.422     | 112.84     | 257.6      | 192.9 |  1.26
Bond    | 1.2842     | 1.9589     | 2.6184     |  14.2 |  0.02
Kspace  | 7833.2     | 8015.1     | 8109.4     |  71.2 | 89.41
Neigh   | 116.38     | 121.6      | 128        |  23.6 |  1.36
Comm    | 229.15     | 325.84     | 477.52     | 303.0 |  3.63
Output  | 0.012626   | 0.015679   | 0.029102   |   1.3 |  0.00
Modify  | 242.57     | 295.25     | 352.13     | 124.0 |  3.29
Other   |            | 92.24      |            |       |  1.03

Nlocal:    129.398 ave 195 max 102 min
Histogram: 2 27 105 54 14 6 5 1 0 2
Nghost:    956.981 ave 1064 max 875 min
Histogram: 2 14 29 52 54 31 20 8 3 3
Neighs:    4747.89 ave 9877 max 3129 min
Histogram: 5 83 95 16 7 8 0 1 0 1

Total # of neighbors = 1025545
Ave neighs/atom = 36.6921
Ave special neighs/atom = 0.62254
Neighbor list builds = 134424
Dangerous builds = 0
PPPM initialization ...
  using 12-bit tables for long-range coulomb (src/kspace.cpp:332)
  G vector (1/distance) = 1.14923
  grid = 90 90 90
  stencil order = 5
  estimated absolute RMS force accuracy = 0.00011112
  estimated relative force accuracy = 0.00011112
  using double precision FFTW3
  3d grid and FFT values/proc = 8000 3600
WARNING: Neighbor exclusions used with KSpace solver may give inconsistent Coulombic energies (src/neighbor.cpp:486)
Neighbor list info ...
  update every 1 steps, delay 0 steps, check yes
  max neighbors/atom: 2000, page size: 100000
  master list distance cutoff = 2.8
  ghost atom cutoff = 2.8
  binsize = 1.4, bins = 24 24 24
  12 neighbor lists, perpetual/occasional/extra = 2 10 0
  (1) pair lj/cut, perpetual
      attributes: half, newton on
      pair build: half/bin/newton
      stencil: half/bin/3d/newton
      bin: standard
  (2) pair coul/long, perpetual, skip from (1)
      attributes: half, newton on
      pair build: skip
      stencil: none
      bin: none
  (3) compute rdf, occasional, copy from (1)
      attributes: half, newton on
      pair build: copy
      stencil: none
      bin: none
  (4) compute rdf, occasional, copy from (1)
      attributes: half, newton on
      pair build: copy
      stencil: none
      bin: none
  (5) compute rdf, occasional, copy from (1)
      attributes: half, newton on
      pair build: copy
      stencil: none
      bin: none
  (6) compute rdf, occasional, copy from (1)
      attributes: half, newton on
      pair build: copy
      stencil: none
      bin: none
  (7) compute rdf, occasional, copy from (1)
      attributes: half, newton on
      pair build: copy
      stencil: none
      bin: none
  (8) compute rdf, occasional, copy from (1)
      attributes: half, newton on
      pair build: copy
      stencil: none
      bin: none
  (9) compute rdf, occasional, copy from (1)
      attributes: half, newton on
      pair build: copy
      stencil: none
      bin: none
  (10) compute rdf, occasional, copy from (1)
      attributes: half, newton on
      pair build: copy
      stencil: none
      bin: none
  (11) compute rdf, occasional, copy from (1)
      attributes: half, newton on
      pair build: copy
      stencil: none
      bin: none
  (12) compute rdf, occasional, copy from (1)
      attributes: half, newton on
      pair build: copy
      stencil: none
      bin: none
Setting up Verlet run ...
  Unit style    : lj
  Current step  : 0
  Time step     : 0.005
WARNING: One or more chunks do not contain all atoms in molecule (src/compute_chunk_atom.cpp:1163)
Per MPI rank memory allocation (min/avg/max) = 17.81 | 19.19 | 19.84 Mbytes
Step Temp Press PotEng KinEng E_pair E_bond TotEng 
       0   0.79986505  -0.10978531    1.9470468    1.1632671   -4.4659035    6.4129502    3.1103138 
   10000   0.79627942  -0.19359653    1.9550694    1.1580524   -4.4608098    6.4158792    3.1131218 
   20000   0.80636954  -0.18851789    1.9539608    1.1727267   -4.4613497    6.4153104    3.1266875 
   30000   0.80113823  -0.16152986     1.949407    1.1651187   -4.4646097    6.4140167    3.1145257 
   40000   0.79713068   -0.1836738    1.9524497    1.1592904   -4.4596459    6.4120956    3.1117401 
   50000   0.79779078  -0.11983284    1.9514203    1.1602504   -4.4608315    6.4122518    3.1116707 
   60000   0.79547609  -0.22995357    1.9445474    1.1568841   -4.4725175    6.4170649    3.1014315 
   70000   0.79446272  -0.15883324    1.9610437    1.1554103   -4.4529792    6.4140229     3.116454 
   80000   0.80331508  -0.14585568    1.9614947    1.1682845   -4.4526442    6.4141389    3.1297793 
   90000   0.79908793  -0.20622937    1.9552899    1.1621369     -4.45954    6.4148299    3.1174267 
  100000   0.79851063  -0.19100778    1.9487369    1.1612973   -4.4657024    6.4144393    3.1100342 
  110000   0.80885812  -0.18273323    1.9562647    1.1763459   -4.4617637    6.4180284    3.1326107 
  120000   0.79637014  -0.21439564    1.9497008    1.1581843   -4.4636545    6.4133554    3.1078851 
  130000    0.7966761  -0.19712393     1.953281    1.1586293   -4.4582154    6.4114964    3.1119103 
  140000   0.79630558  -0.16653979    1.9492141    1.1580904    -4.465454    6.4146682    3.1073046 
  150000   0.80225542    -0.209464    1.9516482    1.1667435   -4.4624014    6.4140496    3.1183917 
  160000   0.80126137  -0.22206301    1.9602401    1.1652978   -4.4586221    6.4188622    3.1255379 
  170000   0.79865429  -0.17364839    1.9526668    1.1615062   -4.4604365    6.4131033     3.114173 
  180000    0.8014108  -0.22991184    1.9535879    1.1655151    -4.462638    6.4162259     3.119103 
  190000   0.79798365  -0.23840639    1.9520675    1.1605309   -4.4622134    6.4142809    3.1125984 
  200000   0.80505981  -0.16135323    1.9550689     1.170822   -4.4589058    6.4139747    3.1258908 
  210000   0.79502857  -0.23687178    1.9422656    1.1562332   -4.4712235    6.4134891    3.0984988 
  220000   0.79962405  -0.19722976    1.9521043    1.1629166   -4.4638206    6.4159248    3.1150209 
  230000   0.79602101  -0.23263305    1.9518194    1.1576766   -4.4605471    6.4123665     3.109496 
  240000   0.79839975   -0.1232213    1.9508692     1.161136   -4.4612707    6.4121399    3.1120052 
  250000   0.79579399  -0.18967032    1.9498352    1.1573464   -4.4637214    6.4135566    3.1071816 
  260000   0.79934707  -0.15673451    1.9598026    1.1625138   -4.4578873    6.4176899    3.1223164 
  270000   0.79899959  -0.22955999    1.9441485    1.1620084   -4.4690704    6.4132189    3.1061569 
  280000   0.79856992  -0.16936951     1.958542    1.1613835   -4.4558507    6.4143927    3.1199255 
  290000   0.80149312   -0.1850027    1.9532145    1.1656348   -4.4626569    6.4158714    3.1188493 
  300000   0.79965222   -0.2122366    1.9552736    1.1629575   -4.4581499    6.4134235    3.1182311 
  310000   0.80054051   -0.2068846    1.9501006    1.1642494   -4.4645912    6.4146918      3.11435 
  320000   0.79915495  -0.24085187    1.9444858    1.1622344   -4.4688563    6.4133421    3.1067201 
  330000   0.78591106   -0.1834338    1.9533625    1.1429734   -4.4610264    6.4143889    3.0963358 
  340000   0.80185145  -0.23172919    1.9517803    1.1661559   -4.4638974    6.4156778    3.1179363 
  350000   0.79213922  -0.15463213    1.9529775    1.1520312   -4.4611011    6.4140786    3.1050087 
  360000   0.80143004  -0.15013203    1.9567707    1.1655431   -4.4599007    6.4166714    3.1223137 
  370000   0.80239397  -0.22382951    1.9554611     1.166945   -4.4620479     6.417509    3.1224061 
  380000   0.80484096  -0.19582224    1.9483093    1.1705037   -4.4636035    6.4119128    3.1188129 
  390000   0.79789645  -0.18972777    1.9544767    1.1604041    -4.459847    6.4143238    3.1148808 
  400000   0.80045668  -0.19824347    1.9579038    1.1641275   -4.4571715    6.4150753    3.1220313 
  410000   0.80180103  -0.22942477    1.9493805    1.1660826    -4.464207    6.4135875    3.1154631 
  420000   0.79615949  -0.21770626    1.9525331     1.157878   -4.4655105    6.4180436     3.110411 
  430000   0.79834362  -0.20044714     1.956345    1.1610544    -4.457801     6.414146    3.1173994 
  440000   0.79740955  -0.18000922    1.9550083     1.159696   -4.4594033    6.4144116    3.1147042 
  450000   0.79763876  -0.15919669    1.9543157    1.1600293   -4.4551703    6.4094859     3.114345 
  460000   0.80064641  -0.16598645    1.9548613    1.1644034    -4.456899    6.4117603    3.1192647 
  470000   0.80196709  -0.17365546    1.9548381    1.1663241   -4.4587717    6.4136098    3.1211622 
  480000   0.80406886  -0.20892056    1.9533312    1.1693808   -4.4593099    6.4126411     3.122712 
  490000   0.80294246  -0.17412588    1.9504638    1.1677426   -4.4600289    6.4104927    3.1182064 
  500000   0.79898071  -0.17434709    1.9562734    1.1619809   -4.4576591    6.4139325    3.1182543 
  510000   0.79076689  -0.20616347     1.953879    1.1500353   -4.4615364    6.4154154    3.1039144 
  520000   0.80477321  -0.17338825    1.9511355    1.1704051   -4.4633629    6.4144984    3.1215406 
  530000   0.80351314  -0.18402306     1.959237    1.1685726   -4.4542959    6.4135329    3.1278096 
  540000    0.7963268  -0.22578274    1.9505029    1.1581213   -4.4633299    6.4138328    3.1086242 
  550000   0.80333774  -0.17431135    1.9515821    1.1683175   -4.4608167    6.4123988    3.1198996 
  560000   0.79919966  -0.17617296    1.9514391    1.1622994   -4.4627686    6.4142077    3.1137384 
  570000   0.80688634  -0.18781373    1.9573607    1.1734783   -4.4579333    6.4152941    3.1308391 
  580000   0.80130568  -0.19877027    1.9512436    1.1653622   -4.4610446    6.4122881    3.1166058 
  590000   0.79921115  -0.19711867    1.9488157    1.1623161   -4.4646611    6.4134767    3.1111317 
  600000   0.79985178  -0.16438857    1.9536176    1.1632478   -4.4593711    6.4129887    3.1168653 
  610000   0.80927584  -0.20519318    1.9480798    1.1769534   -4.4665735    6.4146534    3.1250333 
  620000   0.79973455  -0.14305563    1.9493141    1.1630773   -4.4638506    6.4131647    3.1123914 
  630000    0.8005004  -0.14072827    1.9544576    1.1641911   -4.4606199    6.4150775    3.1186487 
  640000   0.80171826  -0.20162518     1.949945    1.1659622   -4.4626718    6.4126168    3.1159072 
  650000   0.80310981  -0.16942951    1.9529317     1.167986   -4.4619664    6.4148981    3.1209177 
  660000    0.7938293  -0.22087754     1.944208    1.1544891     -4.46699     6.411198    3.0986971 
  670000   0.80071775  -0.20879596    1.9488963    1.1645072    -4.467974    6.4168703    3.1134035 
  680000   0.79806626  -0.23282593    1.9578464     1.160651   -4.4563345    6.4141809    3.1184974 
  690000    0.7981842  -0.20287425    1.9472019    1.1608226   -4.4656636    6.4128655    3.1080244 
  700000   0.79971735  -0.18998929      1.95627    1.1630523   -4.4591259    6.4153958    3.1193222 
  710000   0.79883594  -0.25972116    1.9541177    1.1617704   -4.4595352    6.4136529    3.1158881 
  720000   0.79354388  -0.19275835    1.9597214     1.154074   -4.4553412    6.4150626    3.1137954 
  730000     0.791923  -0.18189297    1.9502955    1.1517167   -4.4646068    6.4149023    3.1020122 
  740000    0.8009455  -0.25726571    1.9445979    1.1648384   -4.4688995    6.4134974    3.1094363 
  750000   0.80052261  -0.23978523    1.9514155    1.1642234    -4.463067    6.4144825    3.1156389 
  760000   0.80411443   -0.1757579    1.9529725    1.1694471   -4.4601511    6.4131236    3.1224195 
  770000   0.80258214  -0.20316991    1.9565713    1.1672186    -4.455166    6.4117372    3.1237899 
  780000   0.80614358  -0.16810303     1.958426    1.1723981   -4.4558424    6.4142685    3.1308241 
  790000    0.8065592  -0.18499847    1.9533746    1.1730026   -4.4611063    6.4144809    3.1263772 
  800000   0.79565939  -0.25522166    1.9508412    1.1571507   -4.4668241    6.4176654    3.1079919 
  810000   0.79271333   -0.2009645    1.9604511    1.1528661   -4.4568583    6.4173094    3.1133172 
  820000   0.79968663  -0.22257558    1.9512183    1.1630076   -4.4631527    6.4143711    3.1142259 
  830000    0.7981297  -0.16925045    1.9528548    1.1607433   -4.4602051    6.4130599    3.1135981 
  840000   0.80275609  -0.20333439     1.942746    1.1674716   -4.4669294    6.4096754    3.1102176 
  850000   0.79734458  -0.19349222    1.9522782    1.1596015   -4.4622356    6.4145138    3.1118797 
  860000   0.79849114  -0.19656275    1.9562724    1.1612689   -4.4591103    6.4153827    3.1175414 
  870000   0.79722768  -0.18491389     1.958537    1.1594315   -4.4570681    6.4156051    3.1179685 
  880000   0.80052619  -0.20189914    1.9459943    1.1642286   -4.4673225    6.4133169    3.1102229 
  890000   0.80251999  -0.18758521    1.9461882    1.1671282   -4.4654755    6.4116637    3.1133164 
  900000   0.80308431  -0.20917983    1.9489123    1.1679489   -4.4617591    6.4106714    3.1168612 
  910000   0.80410341  -0.16366461    1.9481941     1.169431   -4.4674859    6.4156799    3.1176251 
  920000   0.79787835  -0.22563421    1.9422127    1.1603778   -4.4728229    6.4150356    3.1025904 
  930000   0.80841868  -0.20490412    1.9477772    1.1757069   -4.4680927      6.41587    3.1234841 
  940000    0.7933253  -0.23885882    1.9429957    1.1537561    -4.471771    6.4147667    3.0967518 
  950000   0.80390388  -0.26031789    1.9466448    1.1691409   -4.4694932     6.416138    3.1157857 
  960000   0.79793326  -0.17558351    1.9623321    1.1604576   -4.4546865    6.4170186    3.1227897 
  970000   0.79380273  -0.19002954    1.9598741    1.1544505   -4.4575469     6.417421    3.1143246 
  980000   0.80261854  -0.17763408    1.9454272    1.1672715   -4.4693616    6.4147888    3.1126987 
  990000   0.79927392   -0.1706349    1.9538097    1.1624074   -4.4589132    6.4127229    3.1162171 
 1000000   0.80690559  -0.22545763    1.9528173    1.1735063   -4.4619233    6.4147407    3.1263237 
 1010000   0.79879534  -0.17708167    1.9489453    1.1617113   -4.4673814    6.4163267    3.1106567 
 1020000   0.80161721   -0.2002755    1.9410091    1.1658153   -4.4692605    6.4102696    3.1068244 
 1030000   0.80655179  -0.17056499    1.9470197    1.1729918   -4.4654141    6.4124338    3.1200115 
 1040000   0.79918937  -0.15739056    1.9505697    1.1622844   -4.4596045    6.4101742    3.1128541 
 1050000   0.80408305  -0.15080252     1.946562    1.1694014   -4.4680197    6.4145816    3.1159634 
 1060000   0.80725633  -0.20651719    1.9477329    1.1740164   -4.4734604    6.4211933    3.1217493 
 1070000   0.79585982  -0.13809498    1.9439711    1.1574421   -4.4677755    6.4117466    3.1014133 
 1080000   0.80376662  -0.21985894    1.9518888    1.1689412   -4.4622817    6.4141706    3.1208301 
 1090000    0.7899826  -0.16410493    1.9492103    1.1488947   -4.4618939    6.4111042    3.0981051 
 1100000   0.79409859  -0.16627018    1.9569664    1.1548807    -4.456672    6.4136384    3.1118471 
 1110000   0.79423628  -0.20752771    1.9403997     1.155081   -4.4726453     6.413045    3.0954807 
 1120000   0.79992619  -0.12985429     1.947828     1.163356   -4.4652794    6.4131074     3.111184 
 1130000     0.797516  -0.19041975    1.9502985    1.1598508    -4.459362    6.4096604    3.1101492 
 1140000   0.80256649  -0.24868617    1.9427444    1.1671959   -4.4729089    6.4156533    3.1099403 
 1150000    0.7948914  -0.23269318    1.9525411    1.1560337   -4.4625494    6.4150905    3.1085749 
 1160000   0.79311955   -0.2463598      1.94943    1.1534569   -4.4656068    6.4150369    3.1028869 
 1170000   0.80038151  -0.13188538    1.9567522    1.1640182   -4.4594185    6.4161708    3.1207704 
 1180000   0.79506354  -0.21151701    1.9526409    1.1562841   -4.4600873    6.4127281     3.108925 
 1190000   0.79774904  -0.19091079    1.9532868    1.1601897   -4.4613397    6.4146265    3.1134765 
 1200000   0.79960011  -0.14545804    1.9439325    1.1628818   -4.4689193    6.4128518    3.1068142 
 1210000   0.80543881  -0.19042428    1.9458335    1.1713731   -4.4671108    6.4129442    3.1172066 
 1220000   0.80111342  -0.18447749    1.9460208    1.1650826   -4.4651432     6.411164    3.1111034 
 1230000   0.79928298   -0.1559138    1.9503117    1.1624205   -4.4665291    6.4168408    3.1127323 
 1240000   0.79891336  -0.15372236      1.95105     1.161883   -4.4632506    6.4143007     3.112933 
 1250000   0.80267246  -0.21213628    1.9544756      1.16735   -4.4589945    6.4134701    3.1218255 
 1260000   0.79566534  -0.20490366    1.9516429    1.1571593   -4.4611395    6.4127824    3.1088022 
 1270000    0.7971045  -0.21900548    1.9455048    1.1592523    -4.469107    6.4146118    3.1047571 
 1280000   0.80265472  -0.18509817    1.9520521    1.1673242    -4.462106    6.4141581    3.1193763 
 1290000   0.79207812  -0.19483028    1.9476785    1.1519423   -4.4653401    6.4130187    3.0996209 
 1300000   0.80069823  -0.14117445    1.9492748    1.1644788    -4.462755    6.4120298    3.1137536 
 1310000   0.80682585  -0.16198532     1.950562    1.1733904   -4.4625609    6.4131229    3.1239524 
 1320000   0.79422833  -0.21304094    1.9441566    1.1550694   -4.4688268    6.4129834     3.099226 
 1330000   0.80823063  -0.16293124    1.9471165    1.1754334   -4.4649699    6.4120864    3.1225499 
 1340000   0.79849322  -0.25316696    1.9520276     1.161272   -4.4617204     6.413748    3.1132996 
 1350000   0.80559039  -0.24619144    1.9401263    1.1715936   -4.4748986     6.415025    3.1117199 
 1360000   0.80352828  -0.13272819    1.9569599    1.1685946   -4.4582304    6.4151903    3.1255545 
 1370000   0.80368172  -0.20239251    1.9458212    1.1688178     -4.46836    6.4141812    3.1146389 
 1380000   0.80064047  -0.18607044    1.9543704    1.1643948   -4.4607949    6.4151653    3.1187651 
 1390000   0.79972456  -0.19795696    1.9548921    1.1630628   -4.4596353    6.4145274    3.1179548 
 1400000   0.79904669  -0.18078295    1.9479724    1.1620769   -4.4664383    6.4144106    3.1100493 
 1410000   0.79958509  -0.16380289    1.9547953    1.1628599   -4.4576676    6.4124629    3.1176552 
 1420000   0.80041414  -0.19280065    1.9651829    1.1640656   -4.4513658    6.4165487    3.1292485 
 1430000   0.79619243  -0.21378075    1.9503545    1.1579259   -4.4643172    6.4146717    3.1082804 
 1440000   0.80053039  -0.15429988    1.9548247    1.1642347   -4.4628057    6.4176304    3.1190594 
 1450000   0.80022173  -0.21429891    1.9533175    1.1637858    -4.461312    6.4146295    3.1171033 
 1460000   0.79209987  -0.15912736     1.956805    1.1519739   -4.4540802    6.4108851    3.1087789 
 1470000   0.79611985  -0.20348746    1.9574485    1.1578203   -4.4593848    6.4168333    3.1152688 
 1480000   0.79838691  -0.12796631    1.9580542    1.1611174   -4.4588327    6.4168869    3.1191716 
 1490000    0.7972674  -0.16002166    1.9541345    1.1594892   -4.4616712    6.4158057    3.1136237 
 1500000    0.7966002  -0.23591949    1.9433985    1.1585189   -4.4714086    6.4148072    3.1019174 
 1510000   0.80674979  -0.23758473    1.9535198    1.1732797   -4.4608386    6.4143584    3.1267996 
 1520000   0.80022517  -0.20844568    1.9566351    1.1637908   -4.4566874    6.4133225    3.1204259 
 1530000   0.79937735  -0.13647251    1.9571322    1.1625578   -4.4553211    6.4124533      3.11969 
 1540000    0.7927376  -0.18690739     1.949107    1.1529014    -4.462102     6.411209    3.1020084 
 1550000   0.79345868  -0.14511589    1.9503003    1.1539501   -4.4605699    6.4108702    3.1042504 
 1560000   0.80332262  -0.19441431     1.953413    1.1682955   -4.4600079    6.4134209    3.1217085 
 1570000   0.80383357  -0.23424454    1.9436589    1.1690386   -4.4676943    6.4113531    3.1126975 
 1580000    0.7983036  -0.11140678    1.9544408    1.1609962   -4.4598441    6.4142849     3.115437 
 1590000    0.8012311  -0.17061748    1.9553904    1.1652538   -4.4646251    6.4200154    3.1206442 
 1600000   0.79772833  -0.16149454    1.9513278    1.1601596   -4.4642161     6.415544    3.1114874 
 1610000   0.79461339  -0.25876453    1.9356761    1.1556294   -4.4725026    6.4081786    3.0913055 
 1620000   0.79965303   -0.2324696     1.944983    1.1629587   -4.4670577    6.4120408    3.1079418 
 1630000   0.79225996  -0.18206493    1.9480411    1.1522068    -4.467879      6.41592    3.1002478 
 1640000   0.79880495  -0.24531962    1.9450043    1.1617253   -4.4678163    6.4128207    3.1067297 
 1650000   0.79910623   -0.1940253    1.9473662    1.1621635   -4.4655994    6.4129657    3.1095297 
 1660000   0.80848852  -0.18948272    1.9488667    1.1758084    -4.462829    6.4116957    3.1246751 
 1670000    0.7941529   -0.2157707    1.9499515    1.1549597   -4.4614216    6.4113732    3.1049113 
 1680000   0.80203545  -0.20823718    1.9421188    1.1664235   -4.4679902     6.410109    3.1085423 
 1690000   0.80390745  -0.20260428    1.9585642     1.169146   -4.4573798     6.415944    3.1277102 
 1700000   0.80118234  -0.22474248     1.951215    1.1651828   -4.4606432    6.4118583    3.1163979 
 1710000   0.79606691  -0.16661936    1.9538658    1.1577433   -4.4615806    6.4154463    3.1116091 
 1720000   0.80370116  -0.18973653    1.9488446     1.168846   -4.4635884     6.412433    3.1176906 
 1730000   0.80092436  -0.16155866    1.9493398    1.1648076    -4.464161    6.4135008    3.1141475 
 1740000   0.79845539   -0.1934285    1.9487237     1.161217    -4.467238    6.4159617    3.1099406 
 1750000   0.80107786  -0.20557109    1.9483256    1.1650309   -4.4658159    6.4141416    3.1133565 
 1760000   0.79121009  -0.17696236    1.9605535    1.1506799   -4.4544239    6.4149774    3.1112334 
 1770000   0.80371431  -0.18864305    1.9508736    1.1688652   -4.4650131    6.4158867    3.1197388 
 1780000    0.7973904  -0.20729767    1.9505538    1.1596681   -4.4651153    6.4156691    3.1102219 
 1790000   0.79602731  -0.18685707     1.947723    1.1576857   -4.4642701    6.4119932    3.1054088 
 1800000   0.79950281  -0.20497905    1.9509367    1.1627403   -4.4610912    6.4120278    3.1136769 
 1810000   0.80277293  -0.16898379    1.9537095    1.1674961   -4.4588029    6.4125124    3.1212056 
 1820000   0.79239431  -0.20850835     1.954961    1.1524022    -4.460725     6.415686    3.1073632 
 1830000   0.79972904  -0.24985153    1.9454928    1.1630693    -4.467865    6.4133578     3.108562 
 1840000    0.7996789  -0.20051891    1.9516725    1.1629963   -4.4627608    6.4144333    3.1146689 
 1850000   0.79495638  -0.24808918    1.9592841    1.1561282   -4.4581868     6.417471    3.1154124 
 1860000   0.79673062  -0.17996223    1.9492174    1.1587086   -4.4644713    6.4136888     3.107926 
 1870000   0.80043529  -0.19253534     1.952048    1.1640964   -4.4625176    6.4145656    3.1161444 
 1880000    0.8044958  -0.19778721    1.9528927    1.1700017   -4.4603779    6.4132706    3.1228944 
 1890000   0.79862721  -0.23333211    1.9508807    1.1614668   -4.4618295    6.4127102    3.1123476 
 1900000   0.80303121   -0.2764567    1.9458169    1.1678717   -4.4682108    6.4140278    3.1136886 
 1910000   0.79730119  -0.15833644    1.9572138    1.1595384   -4.4586807    6.4158944    3.1167521 
 1920000   0.80360595  -0.19088768    1.9526611    1.1687076   -4.4594398    6.4121008    3.1213686 
 1930000   0.80005649  -0.21036229    1.9596131    1.1635455   -4.4563112    6.4159243    3.1231586 
 1940000   0.80389936  -0.18174086    1.9565615    1.1691343    -4.463418    6.4199796    3.1256958 
 1950000   0.80278933  -0.17665477     1.960507    1.1675199   -4.4555049    6.4160118    3.1280269 
 1960000   0.79784215  -0.16823139    1.9515758    1.1603251   -4.4615952     6.413171    3.1119009 
 1970000   0.79647077  -0.18283138    1.9527304    1.1583307   -4.4593149    6.4120453     3.111061 
 1980000   0.80549247  -0.19437338    1.9534562    1.1714512   -4.4595879    6.4130441    3.1249074 
 1990000   0.79827221  -0.20701278    1.9556542    1.1609505   -4.4590209    6.4146751    3.1166047 
 2000000   0.80012139  -0.22102692    1.9469435    1.1636399   -4.4654341    6.4123776    3.1105834 
 2010000   0.79614364  -0.18811974     1.949544    1.1578549   -4.4621021    6.4116461    3.1073989 
 2020000   0.79860187  -0.18179384    1.9549269      1.16143   -4.4594332    6.4143602    3.1163569 
 2030000   0.80978943   -0.2544479    1.9391984    1.1777004   -4.4726345    6.4118329    3.1168988 
 2040000   0.79948333  -0.18121607    1.9573191    1.1627119   -4.4572136    6.4145327     3.120031 
 2050000   0.79836873  -0.15274265    1.9538444    1.1610909   -4.4610656      6.41491    3.1149353 
 2060000   0.79898313  -0.14424526    1.9549336    1.1619845   -4.4580506    6.4129842    3.1169181 
 2070000   0.79641087  -0.19457071    1.9461721    1.1582435   -4.4685931    6.4147652    3.1044156 
 2080000   0.80161864  -0.15711055    1.9517847    1.1658174   -4.4639657    6.4157504    3.1176021 
 2090000   0.80039162  -0.20823556    1.9504528    1.1640329   -4.4656165    6.4160693    3.1144857 
 2100000   0.79268718  -0.18087252    1.9458344    1.1528281   -4.4648433    6.4106777    3.0986625 
 2110000    0.8023824  -0.20293965    1.9529671    1.1669281   -4.4613583    6.4143254    3.1198952 
 2120000   0.79680027  -0.22003564    1.9491282    1.1588099   -4.4689038     6.418032    3.1079381 
 2130000   0.80031798  -0.21980434    1.9532517    1.1639258   -4.4627321    6.4159838    3.1171774 
 2140000   0.79830372  -0.15507496    1.9597118    1.1609964    -4.453938    6.4136498    3.1207082 
 2150000   0.79452705  -0.19305597    1.9557567    1.1555039   -4.4566253     6.412382    3.1112606 
 2160000    0.7964735  -0.22068288    1.9464985    1.1583346   -4.4654699    6.4119684    3.1048331 
 2170000    0.8005481  -0.17959749    1.9505627    1.1642605   -4.4640397    6.4146024    3.1148231 
 2180000   0.80374343  -0.20222706    1.9461004    1.1689075   -4.4692558    6.4153561    3.1150079 
 2190000   0.80478358  -0.18602126    1.9521809    1.1704202   -4.4604864    6.4126672    3.1226011 
 2200000   0.79909664  -0.19348996      1.94961    1.1621495   -4.4662133    6.4158233    3.1117595 
 2210000   0.79880616  -0.14958957    1.9480844    1.1617271   -4.4665228    6.4146071    3.1098115 
 2220000   0.79742721  -0.21356814    1.9465926    1.1597216   -4.4692179    6.4158105    3.1063142 
 2230000   0.79458176   -0.2063092    1.9483396    1.1555834   -4.4646322    6.4129718    3.1039231 
 2240000   0.79889354  -0.20942058     1.944519    1.1618542   -4.4700071    6.4145261    3.1063731 
 2250000     0.802808  -0.15384226    1.9529215    1.1675471    -4.462628    6.4155495    3.1204686 
 2260000   0.79737488  -0.21273631    1.9417608    1.1596455   -4.4712293      6.41299    3.1014063 
 2270000   0.80127163  -0.19637992    1.9496979    1.1653127   -4.4646143    6.4143121    3.1150106 
 2280000   0.80478835  -0.12265077    1.9533593    1.1704272   -4.4620568    6.4154162    3.1237865 
 2290000   0.80138439    -0.148963    1.9517319    1.1654767   -4.4664484    6.4181803    3.1172086 
 2300000   0.79954651  -0.21355602    1.9531409    1.1628038   -4.4625376    6.4156785    3.1159447 
 2310000   0.79707679  -0.20858108    1.9532244     1.159212   -4.4613209    6.4145453    3.1124364 
 2320000   0.79923804  -0.14231629    1.9542515    1.1623552   -4.4581993    6.4124508    3.1166067 
 2330000   0.80042171  -0.22895396    1.9488318    1.1640766   -4.4656188    6.4144506    3.1129084 
 2340000   0.80303408   -0.2039888    1.9484201    1.1678759   -4.4631149     6.411535     3.116296 
 2350000   0.80331556    -0.162805      1.95518    1.1682852   -4.4600881    6.4152681    3.1234653 
 2360000   0.80477518    -0.162927    1.9505034     1.170408    -4.460601    6.4111044    3.1209114 
 2370000   0.80469404  -0.16190402    1.9633779      1.17029   -4.4527007    6.4160786    3.1336679 
 2380000   0.79568533  -0.18619091    1.9561938    1.1571884   -4.4588038    6.4149976    3.1133822 
 2390000   0.80363431  -0.18887181    1.9540378    1.1687488   -4.4627132     6.416751    3.1227866 
 2400000   0.80196726  -0.22772882    1.9483214    1.1663244    -4.469156    6.4174775    3.1146458 
 2410000   0.80263992  -0.18217227    1.9567846    1.1673026   -4.4568118    6.4135964    3.1240872 
 2420000   0.79919191  -0.25956199     1.950297    1.1622881   -4.4619903    6.4122873    3.1125851 
 2430000   0.80095413  -0.30531828    1.9480407    1.1648509   -4.4654974     6.413538    3.1128916 
 2440000   0.79994176  -0.10958116    1.9497215    1.1633786    -4.464405    6.4141265    3.1131002 
 2450000   0.79824427  -0.21847444    1.9385083    1.1609099    -4.473022    6.4115303    3.0994183 
 2460000   0.80845612  -0.24789402    1.9417529    1.1757613   -4.4717819    6.4135347    3.1175142 
 2470000   0.80267074   -0.2481996    1.9449763    1.1673475     -4.46897    6.4139463    3.1123237 
 2480000   0.80140963  -0.16551401    1.9504833    1.1655134   -4.4642998    6.4147832    3.1159967 
 2490000   0.80030732  -0.21557175    1.9465508    1.1639103   -4.4673132     6.413864    3.1104611 
 2500000   0.79404111  -0.22510165    1.9449766    1.1547971   -4.4661646    6.4111412    3.0997737 
 2510000   0.80202324  -0.13865404    1.9567357    1.1664058   -4.4591466    6.4158823    3.1231415 
 2520000   0.79910114  -0.19157352    1.9536201    1.1621561   -4.4597968    6.4134169    3.1157761 
 2530000   0.80260576  -0.14129291     1.954117     1.167253   -4.4591961    6.4133132      3.12137 
 2540000   0.79788278  -0.19002748    1.9584038    1.1603842   -4.4571179    6.4155217     3.118788 
 2550000   0.79969117  -0.17067747    1.9529209    1.1630142   -4.4623141     6.415235    3.1159351 
 2560000    0.7969401  -0.20478173    1.9488455    1.1590132   -4.4667316    6.4155771    3.1078587 
 2570000   0.79771831  -0.19804985    1.9473239     1.160145   -4.4657367    6.4130606    3.1074689 
 2580000   0.80208909  -0.14393955    1.9557599    1.1665016   -4.4602851     6.416045    3.1222615 
 2590000   0.79820332 -0.090741819    1.9496421    1.1608504   -4.4630821    6.4127241    3.1104924 
 2600000    0.8018132  -0.18865126    1.9477869    1.1661003   -4.4686867    6.4164736    3.1138873 
 2610000   0.80106344  -0.17981785    1.9565865    1.1650099   -4.4586944    6.4152809    3.1215964 
 2620000   0.80040604  -0.19737901    1.9527985    1.1640538   -4.4629193    6.4157177    3.1168523 
 2630000   0.79699883  -0.19656225    1.9462672    1.1590986   -4.4652048     6.411472    3.1053658 
 2640000   0.79645079  -0.21546771    1.9455748    1.1583016   -4.4703719    6.4159467    3.1038764 
 2650000   0.79962142  -0.19478552     1.948291    1.1629127   -4.4633811    6.4116721    3.1112038 
 2660000   0.79590346  -0.15365892       1.9555    1.1575056   -4.4602112    6.4157111    3.1130056 
 2670000   0.80047292  -0.16426641    1.9559341    1.1641511    -4.458264    6.4141981    3.1200852 
 2680000   0.80590998  -0.15393964    1.9572112    1.1720584   -4.4571378     6.414349    3.1292696 
 2690000    0.8020577  -0.17299028    1.9568698    1.1664559   -4.4566514    6.4135212    3.1233257 
 2700000   0.79216245  -0.12379331    1.9532846    1.1520649    -4.455868    6.4091525    3.1053495 
 2710000   0.79858489  -0.14803836    1.9483316    1.1614053   -4.4685389    6.4168705    3.1097369 
 2720000   0.80504667  -0.12614507    1.9523873    1.1708028   -4.4629715    6.4153588    3.1231901 
 2730000    0.7999577  -0.15232125    1.9511364    1.1634018   -4.4636956     6.414832    3.1145382 
 2740000   0.80130023  -0.17293843    1.9525461    1.1653543   -4.4619264    6.4144725    3.1179004 
 2750000   0.80306743  -0.11745509    1.9524492    1.1679244   -4.4615229    6.4139722    3.1203736 
 2760000   0.80493386  -0.16848947    1.9468477    1.1706388   -4.4659653     6.412813    3.1174865 
 2770000   0.79839557  -0.24828713    1.9544209      1.16113   -4.4628406    6.4172615    3.1155508 
 2780000   0.80485746  -0.16385417    1.9507034    1.1705277   -4.4631873    6.4138907    3.1212311 
 2790000   0.80121369  -0.17456142    1.9551762    1.1652284     -4.46079    6.4159661    3.1204046 
 2800000    0.7995027   -0.2036948    1.9536683    1.1627401   -4.4617667     6.415435    3.1164084 
 2810000   0.79781241  -0.19402524    1.9485834    1.1602819   -4.4637599    6.4123433    3.1088653 
 2820000    0.8083393  -0.17210908     1.956302    1.1755914   -4.4579282    6.4142302    3.1318934 
 2830000   0.79334727  -0.20642475    1.9404086    1.1537881   -4.4723786    6.4127873    3.0941967 
 2840000   0.79788569  -0.17512871    1.9552313    1.1603884   -4.4609219    6.4161532    3.1156197 
 2850000   0.80486461  -0.18388794    1.9518957    1.1705381   -4.4634329    6.4153285    3.1224338 
 2860000   0.80228686  -0.10828003     1.958035    1.1667892   -4.4551279    6.4131629    3.1248242 
 2870000   0.79770378   -0.1773255     1.953538    1.1601239   -4.4601959    6.4137339    3.1136618 
 2880000   0.79270254  -0.18877685    1.9556576    1.1528504   -4.4623476    6.4180052    3.1085081 
 2890000     0.799906  -0.25679774     1.953423    1.1633266   -4.4615222    6.4149452    3.1167496 
 2900000   0.79988724   -0.1896939    1.9485573    1.1632993   -4.4640475    6.4126048    3.1118566 
 2910000   0.80161813  -0.15009309    1.9549339    1.1658166   -4.4584768    6.4134107    3.1207505 
 2920000   0.79682879  -0.21438573    1.9479876    1.1588513   -4.4645521    6.4125397     3.106839 
 2930000   0.79727341   -0.1571838    1.9512045     1.159498   -4.4636474    6.4148519    3.1107025 
 2940000   0.79782972  -0.22525036    1.9462715     1.160307   -4.4696638    6.4159353    3.1065785 
 2950000   0.80290989  -0.19852609    1.9612418    1.1676953   -4.4557609    6.4170027     3.128937 
 2960000   0.79780124  -0.18401542     1.946207    1.1602656    -4.465838     6.412045    3.1064726 
 2970000   0.80694822  -0.25637954    1.9451853    1.1735683   -4.4667246    6.4119099    3.1187536 
 2980000   0.80114586  -0.21400662    1.9508813    1.1651298   -4.4635029    6.4143842    3.1160111 
 2990000    0.7939817  -0.24923212    1.9489279    1.1547107   -4.4660342    6.4149621    3.1036386 
 3000000   0.80288017  -0.14567493    1.9513016     1.167652   -4.4659387    6.4172402    3.1189536 
 3010000    0.7990385  -0.17755899    1.9526729     1.162065   -4.4611803    6.4138532    3.1147379 
 3020000   0.79971747   -0.1863854    1.9528085    1.1630524   -4.4584476     6.411256    3.1158609 
 3030000   0.80573108  -0.18858296    1.9517561    1.1717982   -4.4656501    6.4174062    3.1235543 
 3040000   0.79486986  -0.20480512    1.9409985    1.1560024    -4.472155    6.4131535    3.0970009 
 3050000   0.80122055  -0.22000917    1.9428172    1.1652384   -4.4687211    6.4115383    3.1080557 
 3060000   0.79824421  -0.17289238    1.9545607    1.1609098   -4.4596874    6.4142482    3.1154706 
 3070000   0.79265533   -0.1936707    1.9483615    1.1527818    -4.465156    6.4135175    3.1011433 
 3080000   0.79414694  -0.18226433    1.9561002     1.154951   -4.4569288     6.413029    3.1110513 
 3090000   0.79654272  -0.15980574    1.9587014    1.1584353   -4.4572382    6.4159396    3.1171367 
 3100000   0.80322207  -0.22548321     1.943262    1.1681493   -4.4683789    6.4116409    3.1114113 
 3110000    0.7974579  -0.20825005     1.954536    1.1597663   -4.4590608    6.4135968    3.1143023 
 3120000    0.8049121  -0.22356933    1.9539721    1.1706071   -4.4621247    6.4160968    3.1245792 
 3130000    0.8016434  -0.19696173    1.9540147    1.1658534   -4.4607575    6.4147722    3.1198681 
 3140000   0.79933119  -0.22345486    1.9485454    1.1624907    -4.466867    6.4154124     3.111036 
 3150000   0.80091188  -0.27429131    1.9361042    1.1647895   -4.4763547    6.4124589    3.1008937 
 3160000   0.80143779  -0.14934111    1.9571632    1.1655543   -4.4587272    6.4158904    3.1227176 
 3170000   0.79909198  -0.20211717    1.9467618    1.1621428   -4.4658485    6.4126103    3.1089045 
 3180000   0.79563153  -0.24988856    1.9432756    1.1571101   -4.4695765    6.4128521    3.1003858 
 3190000   0.80446713  -0.23799677    1.9537648      1.16996   -4.4618386    6.4156033    3.1237248 
 3200000   0.80246188  -0.12632083    1.9528213    1.1670437   -4.4607498    6.4135711     3.119865 
 3210000   0.80151857  -0.14717498    1.9588632    1.1656718   -4.4533248     6.412188    3.1245351 
 3220000   0.80232755  -0.21503158    1.9493536    1.1668484   -4.4614556    6.4108092     3.116202 
 3230000   0.79578604  -0.25909728    1.9408478    1.1573348   -4.4713981    6.4122459    3.0981827 
 3240000   0.79834416   -0.1828484    1.9497549    1.1610552    -4.465838    6.4155929    3.1108101 
 3250000   0.79775225  -0.22263014    1.9484921    1.1601944   -4.4637896    6.4122817    3.1086865 
 3260000   0.79868039  -0.15962548    1.9529579    1.1615442   -4.4620215    6.4149794    3.1145021 
 3270000   0.79730303  -0.27387281     1.949808     1.159541   -4.4647184    6.4145264    3.1093491 
 3280000   0.80345765  -0.20049413    1.9451292    1.1684919   -4.4691486    6.4142778    3.1136211 
 3290000   0.80477815  -0.18030654    1.9523189    1.1704123   -4.4614039    6.4137228    3.1227313 
 3300000   0.80347448  -0.18938439    1.9558674    1.1685164   -4.4555286    6.4113961    3.1243838 
 3310000   0.79724726  -0.16528232    1.9447299    1.1594599   -4.4656722    6.4104021    3.1041898 
 3320000   0.79039507  -0.19336606    1.9465068    1.1494946   -4.4632658    6.4097725    3.0960013 
 3330000   0.79663224  -0.21159724    1.9549998    1.1585655   -4.4619317    6.4169315    3.1135653 
 3340000   0.79587568  -0.21340407    1.9541104    1.1574652   -4.4576267    6.4117371    3.1115756 
 3350000   0.78982812  -0.22071791    1.9461342    1.1486701   -4.4683564    6.4144906    3.0948043 
 3360000    0.8080263  -0.20030289    1.9520541    1.1751362   -4.4626849    6.4147389    3.1271903 
 3370000   0.80111042  -0.22188623    1.9448337    1.1650782   -4.4696032    6.4144369    3.1099119 
 3380000   0.79855656  -0.22006154    1.9519248    1.1613641   -4.4632806    6.4152054    3.1132889 
 3390000   0.79567516  -0.20887914     1.948885    1.1571736   -4.4631832    6.4120683    3.1060586 
 3400000   0.80290927  -0.21268588     1.948152    1.1676944   -4.4657909    6.4139429    3.1158464 
 3410000   0.79589257  -0.17841129    1.9538131    1.1574898   -4.4567413    6.4105544    3.1113028 
 3420000   0.80051221  -0.12993193     1.955781    1.1642083   -4.4585465    6.4143275    3.1199893 
 3430000   0.80279328  -0.25926139    1.9453961    1.1675257   -4.4684017    6.4137978    3.1129218 
 3440000   0.79829231  -0.22269202    1.9502724    1.1609798   -4.4631435    6.4134159    3.1112522 
 3450000   0.79970617  -0.14417812    1.9477205     1.163036   -4.4638556    6.4115761    3.1107565 
 3460000   0.79674351  -0.19566827    1.9479238    1.1587273   -4.4645924    6.4125163    3.1066511 
 3470000   0.80694694  -0.16440384    1.9504421    1.1735665   -4.4651324    6.4155745    3.1240085 
 3480000   0.80193817  -0.20166302    1.9532176    1.1662821    -4.461375    6.4145926    3.1194997 
 3490000   0.79297737  -0.14678247    1.9571162    1.1532501   -4.4596265    6.4167427    3.1103663 
 3500000   0.80631292  -0.16136983    1.9537946    1.1726444   -4.4571139    6.4109085     3.126439 
 3510000   0.80169153  -0.23178132    1.9511932    1.1659234   -4.4642397    6.4154329    3.1171165 
 3520000   0.80771962  -0.19842814    1.9507059    1.1746902   -4.4632274    6.4139333    3.1253961 
 3530000   0.80064379  -0.13063708    1.9560318    1.1643996   -4.4596098    6.4156417    3.1204314 
 3540000   0.79283488  -0.27585219    1.9427932    1.1530429    -4.471007    6.4138002    3.0958361 
 3550000   0.79968864  -0.23256517    1.9488275    1.1630105   -4.4638253    6.4126528     3.111838 
 3560000   0.80471705  -0.25462729    1.9468294    1.1703235   -4.4678198    6.4146493    3.1171529 
 3570000   0.80329451  -0.20365012    1.9495437    1.1682546   -4.4652106    6.4147543    3.1177983 
 3580000   0.80106101  -0.18132818    1.9490603    1.1650064   -4.4676519    6.4167122    3.1140667 
 3590000   0.80147522  -0.20196185    1.9442394    1.1656088   -4.4681929    6.4124322    3.1098481 
 3600000    0.8005556  -0.18874551    1.9493678    1.1642714   -4.4635193     6.412887    3.1136391 
 3610000   0.79813269  -0.15831835    1.9588878    1.1607476   -4.4567308    6.4156186    3.1196355 
 3620000   0.79987078  -0.18273453    1.9515778    1.1632754   -4.4625575    6.4141352    3.1148532 
 3630000   0.80556421  -0.18433838    1.9546683    1.1715555   -4.4605682    6.4152365    3.1262238 
 3640000   0.79907081  -0.13254371     1.956597     1.162112   -4.4572545    6.4138515     3.118709 
 3650000   0.80133245  -0.20476387     1.947372    1.1654012   -4.4668166    6.4141886    3.1127732 
 3660000   0.81101397  -0.23737336    1.9462328    1.1794813   -4.4707242    6.4169571    3.1257141 
 3670000   0.80604668  -0.20814479    1.9470536    1.1722572   -4.4684815    6.4155351    3.1193108 
 3680000   0.79735073  -0.18405566    1.9505267    1.1596104   -4.4671045    6.4176311    3.1101371 
 3690000   0.79947095  -0.13108938    1.9508495    1.1626939   -4.4597811    6.4106305    3.1135434 
 3700000   0.80316527  -0.20076912    1.9478147    1.1680667   -4.4669937    6.4148084    3.1158814 
 3710000   0.80823926  -0.19410208    1.9464532    1.1754459   -4.4669007    6.4133539    3.1218991 
 3720000   0.80136803   -0.2128773    1.9455299    1.1654529   -4.4657021     6.411232    3.1109828 
 3730000   0.79596642  -0.20049886    1.9476916    1.1575972   -4.4684202    6.4161118    3.1052888 
 3740000   0.79860118  -0.18964742    1.9467105     1.161429   -4.4660586    6.4127691    3.1081394 
 3750000   0.79888698  -0.18324033    1.9555762    1.1618446   -4.4602728     6.415849    3.1174208 
 3760000   0.80461721   -0.1728385    1.9531624    1.1701783   -4.4581563    6.4113186    3.1233406 
 3770000   0.80244466  -0.18277726    1.9461918    1.1670187   -4.4650503     6.411242    3.1132105 
 3780000   0.80251119  -0.14130565    1.9532621    1.1671154    -4.462831     6.416093    3.1203775 
 3790000    0.8023908  -0.14127808    1.9529547    1.1669403   -4.4593653      6.41232     3.119895 
 3800000   0.79660922  -0.20638295    1.9494704     1.158532   -4.4644752    6.4139456    3.1080024 
 3810000    0.8018375  -0.23547659    1.9551953    1.1661357   -4.4625511    6.4177464    3.1213309 
 3820000   0.81064485  -0.21518526    1.9498649    1.1789444   -4.4652431     6.415108    3.1288093 
 3830000   0.80254222  -0.19872139    1.9527064    1.1671605   -4.4632095    6.4159159    3.1198669 
 3840000   0.79573876  -0.16773209     1.956157    1.1572661   -4.4598007    6.4159577    3.1134231 
 3850000   0.79876415  -0.23812397    1.9481459     1.161666   -4.4658447    6.4139907    3.1098119 
 3860000   0.80075002  -0.20481152    1.9478736    1.1645541    -4.465546    6.4134195    3.1124277 
 3870000   0.79488054  -0.16311455    1.9494907     1.156018   -4.4614504    6.4109411    3.1055086 
 3880000   0.80624249  -0.21849043    1.9563392     1.172542   -4.4591546    6.4154938    3.1288812 
 3890000   0.79305323  -0.24728834    1.9499617    1.1533604   -4.4674758    6.4174375    3.1033221 
 3900000   0.79839131  -0.20337614    1.9451729    1.1611238   -4.4701097    6.4152827    3.1062967 
 3910000   0.79881359  -0.20787372    1.9545973    1.1617379   -4.4621011    6.4166984    3.1163352 
 3920000   0.79782907  -0.18714712    1.9528419    1.1603061   -4.4613401     6.414182     3.113148 
 3930000   0.80288706  -0.17752111    1.9602443    1.1676621   -4.4566325    6.4168768    3.1279064 
 3940000   0.79801458  -0.17246901    1.9516215    1.1605759   -4.4641495     6.415771    3.1121974 
 3950000   0.80722637  -0.14131985    1.9399825    1.1739728   -4.4716377    6.4116202    3.1139553 
 3960000   0.79758704  -0.16071485     1.960615    1.1599541   -4.4525807    6.4131958    3.1205691 
 3970000   0.80294084   -0.1764639    1.9527614    1.1677403   -4.4630091    6.4157705    3.1205017 
 3980000   0.79969896  -0.25505533    1.9485105    1.1630255   -4.4661973    6.4147078     3.111536 
 3990000   0.80543296  -0.17827442     1.944994    1.1713646    -4.469276    6.4142699    3.1163586 
 4000000   0.79832712  -0.24393794    1.9402923    1.1610304   -4.4713804    6.4116727    3.1013227 
 4010000   0.80493156  -0.19809179    1.9519034    1.1706354   -4.4642172    6.4161205    3.1225388 
 4020000   0.79923105  -0.20686408    1.9421879     1.162345    -4.470348    6.4125359    3.1045329 
 4030000   0.79629684  -0.16697064    1.9487772    1.1580777   -4.4645297    6.4133068    3.1068549 
 4040000   0.78831295  -0.19302373    1.9555485    1.1464665   -4.4566272    6.4121757     3.102015 
 4050000   0.80185301  -0.19131356     1.947303    1.1661582   -4.4680768    6.4153798    3.1134612 
 4060000   0.80360993  -0.14480929    1.9505961    1.1687134   -4.4607039       6.4113    3.1193095 
 4070000   0.79894016  -0.19462453    1.9506772     1.161922    -4.461655    6.4123322    3.1125991 
 4080000   0.79646728  -0.27771015    1.9507246    1.1583256     -4.46226    6.4129846    3.1090502 
 4090000   0.80029328  -0.19771447    1.9519348    1.1638899   -4.4604309    6.4123658    3.1158247 
 4100000   0.79835304  -0.17857193    1.9641569    1.1610681   -4.4506688    6.4148257     3.125225 
 4110000   0.79554342  -0.19716783    1.9491141     1.156982   -4.4654489    6.4145631    3.1060961 
 4120000   0.80050093  -0.14760475    1.9511677    1.1641918   -4.4623156    6.4134833    3.1153595 
 4130000    0.7992953  -0.20313415    1.9450659    1.1624385   -4.4688805    6.4139464    3.1075043 
 4140000   0.79503331  -0.19510407    1.9525082    1.1562401   -4.4622937    6.4148018    3.1087483 
 4150000   0.80158742  -0.17166454    1.9553945     1.165772   -4.4582042    6.4135987    3.1211665 
 4160000   0.80061631  -0.15945845    1.9485556    1.1643596   -4.4644383     6.412994    3.1129153 
 4170000   0.79214471  -0.21183219    1.9521276    1.1520391    -4.462773    6.4149006    3.1041667 
 4180000   0.79963483  -0.13650733    1.9531248    1.1629323   -4.4601283     6.413253     3.116057 
 4190000   0.80574515  -0.23880019    1.9551498    1.1718187   -4.4596814    6.4148312    3.1269685 
 4200000   0.80122903   -0.1732371      1.96034    1.1652507   -4.4531397    6.4134797    3.1255907 
 4210000   0.80338961  -0.18465503    1.9522975    1.1683929   -4.4645192    6.4168167    3.1206905 
 4220000   0.79388145  -0.24187848    1.9447673    1.1545649   -4.4696263    6.4143936    3.0993323 
 4230000   0.79223885  -0.19384068    1.9483404    1.1521761   -4.4630662    6.4114067    3.1005165 
 4240000   0.79975866  -0.17961745    1.9457275    1.1631123   -4.4644509    6.4101784    3.1088398 
 4250000   0.80175383  -0.16509871    1.9471978     1.166014   -4.4653059    6.4125038    3.1132118 
 4260000   0.80262979  -0.19467531    1.9526088    1.1672879   -4.4594149    6.4120237    3.1198967 
 4270000   0.79184661  -0.20795543    1.9483325    1.1516056   -4.4637113    6.4120438    3.0999381 
 4280000   0.80320518  -0.19616927    1.9486433    1.1681247    -4.465743    6.4143863     3.116768 
 4290000   0.79657883  -0.16236568    1.9502107    1.1584878   -4.4640891    6.4142999    3.1086986 
 4300000   0.79913355  -0.23854575    1.9405353    1.1622032   -4.4751576    6.4156929    3.1027385 
 4310000   0.79082279  -0.20241957    1.9499914    1.1501166   -4.4653266     6.415318     3.100108 
 4320000    0.8009207  -0.22521199    1.9553672    1.1648023   -4.4587663    6.4141335    3.1201696 
 4330000   0.79713915  -0.19161205    1.9450539    1.1593027   -4.4648339    6.4098878    3.1043566 
 4340000   0.80167019   -0.1889559    1.9411777    1.1658923   -4.4721945    6.4133722      3.10707 
 4350000    0.7988712  -0.21877056     1.950808    1.1618217   -4.4684438    6.4192518    3.1126297 
 4360000   0.80379993  -0.15975243    1.9586419    1.1689897   -4.4547475    6.4133894    3.1276316 
 4370000   0.79521446  -0.18344996    1.9458365    1.1565036   -4.4666976    6.4125341    3.1023401 
 4380000   0.79682291  -0.22897814     1.944369    1.1588428   -4.4682562    6.4126252    3.1032118 
 4390000   0.79462396  -0.18532036    1.9415914    1.1556448   -4.4702516     6.411843    3.0972362 
 4400000   0.80746356  -0.21751998    1.9441719    1.1743178   -4.4680176    6.4121895    3.1184897 
 4410000    0.7966229  -0.24274403    1.9508563    1.1585519    -4.463424    6.4142804    3.1094082 
 4420000   0.80269266  -0.16215661    1.9595187    1.1673793   -4.4580248    6.4175436    3.1268981 
 4430000   0.80148546  -0.22923022    1.9469693    1.1656237   -4.4698935    6.4168629     3.112593 
 4440000   0.80073643  -0.19697259    1.9370976    1.1645343   -4.4748562    6.4119539     3.101632 
 4450000   0.80606389  -0.24448408    1.9514693    1.1722822   -4.4646972    6.4161665    3.1237515 
 4460000   0.80308643  -0.20470285    1.9521865     1.167952   -4.4650058    6.4171923    3.1201385 
 4470000   0.80066925  -0.20783641    1.9510873    1.1644366   -4.4633865    6.4144737    3.1155239 
 4480000   0.80029246  -0.15767981    1.9472447    1.1638887    -4.464731    6.4119757    3.1111334 
 4490000   0.80010045  -0.17113469    1.9502407    1.1636094   -4.4598915    6.4101322    3.1138501 
 4500000   0.80356598  -0.20516689    1.9464584    1.1686494   -4.4680092    6.4144676    3.1151079 
 4510000   0.79183933  -0.20582235    1.9441441     1.151595   -4.4683728    6.4125168    3.0957391 
 4520000   0.79830087  -0.20444538    1.9492334    1.1609922   -4.4633619    6.4125954    3.1102257 
 4530000   0.80449296   -0.1877633    1.9506687    1.1699976   -4.4619853     6.412654    3.1206663 
 4540000   0.79809216  -0.19064024    1.9512598    1.1606887   -4.4624622     6.413722    3.1119485 
 4550000   0.79844402  -0.18827059    1.9489008    1.1612004   -4.4641298    6.4130306    3.1101012 
 4560000   0.80202298  -0.16366449    1.9485138    1.1664054   -4.4644585    6.4129723    3.1149192 
 4570000   0.80500223  -0.18377383    1.9540132    1.1707382   -4.4619579    6.4159711    3.1247514 
 4580000   0.79405026  -0.24170156    1.9526528    1.1548104   -4.4606438    6.4132966    3.1074633 
 4590000   0.79568341  -0.19714655     1.951921    1.1571856    -4.460667     6.412588    3.1091065 
 4600000   0.80355516  -0.17635487    1.9511264    1.1686337   -4.4632723    6.4143987    3.1197601 
 4610000    0.8049788  -0.20198424    1.9538285    1.1707041   -4.4611777    6.4150062    3.1245326 
 4620000   0.80122047  -0.17844116     1.958022    1.1652383   -4.4560013    6.4140233    3.1232603 
 4630000    0.8010073  -0.15460587    1.9534681    1.1649283   -4.4593824    6.4128505    3.1183964 
 4640000   0.80040721  -0.18761354    1.9594214    1.1640555   -4.4581573    6.4175787    3.1234769 
 4650000   0.79392281  -0.25045412    1.9488404    1.1546251   -4.4655895      6.41443    3.1034655 
 4660000   0.80328939  -0.26696665    1.9521877    1.1682472   -4.4645444    6.4167321    3.1204349 
 4670000   0.80210602  -0.17658972    1.9481035    1.1665262   -4.4659631    6.4140666    3.1146297 
 4680000   0.79602337  -0.16790526     1.959336      1.15768   -4.4555932    6.4149292     3.117016 
 4690000   0.80195573  -0.19937191    1.9475537    1.1663076   -4.4643515    6.4119052    3.1138613 
 4700000   0.79814616  -0.18865967    1.9519406    1.1607672    -4.460337    6.4122776    3.1127078 
 4710000   0.80352725  -0.12313367     1.951292    1.1685931   -4.4614344    6.4127264    3.1198852 
 4720000   0.79845343  -0.21798742    1.9472907    1.1612141   -4.4674471    6.4147379    3.1085049 
 4730000   0.79116963  -0.17470734    1.9509407    1.1506211   -4.4648099    6.4157506    3.1015618 
 4740000   0.80528943   -0.1918818    1.9600939    1.1711559    -4.457561    6.4176549    3.1312498 
 4750000   0.80212962  -0.13250302    1.9507428    1.1665605   -4.4617207    6.4124635    3.1173033 
 4760000   0.81171143  -0.20599419    1.9456698    1.1804956    -4.468548    6.4142179    3.1261654 
 4770000   0.79220128  -0.20920852      1.95092    1.1521214   -4.4643346    6.4152547    3.1030414 
 4780000   0.80355334  -0.18749435    1.9523263     1.168631   -4.4592362    6.4115625    3.1209573 
 4790000   0.80678452  -0.23358485    1.9561756    1.1733302    -4.460219    6.4163946    3.1295058 
 4800000    0.8047443  -0.23551921    1.9504569    1.1703631   -4.4675423    6.4179992      3.12082 
 4810000   0.80148695  -0.22754303    1.9464753    1.1656258   -4.4703363    6.4168116    3.1121011 
 4820000   0.80552131  -0.14787682     1.953568    1.1714931   -4.4608135    6.4143815    3.1250611 
 4830000    0.8048961  -0.25414592    1.9492307    1.1705839   -4.4641639    6.4133946    3.1198145 
 4840000   0.80931619  -0.17296869    1.9562708    1.1770121   -4.4593548    6.4156256     3.133283 
 4850000   0.79934838   -0.2084627    1.9495879    1.1625157   -4.4639735    6.4135615    3.1121036 
 4860000   0.79373428  -0.22519226    1.9473307    1.1543509   -4.4638689    6.4111996    3.1016816 
 4870000   0.79723345   -0.1753516    1.9514265    1.1594399   -4.4631766    6.4146031    3.1108663 
 4880000   0.80132357  -0.18238242    1.9490806    1.1653882   -4.4629625    6.4120431    3.1144688 
 4890000   0.79457802  -0.19195791    1.9529166     1.155578   -4.4635073    6.4164239    3.1084946 
 4900000   0.79625361   -0.1524944    1.9526009    1.1580148   -4.4622554    6.4148563    3.1106157 
 4910000   0.80249383  -0.16508442    1.9548515    1.1670902   -4.4614938    6.4163453    3.1219416 
 4920000   0.79940445  -0.15208625    1.9526622    1.1625972   -4.4615125    6.4141747    3.1152594 
 4930000   0.79869876  -0.21026874     1.953792    1.1615709   -4.4597957    6.4135878    3.1153629 
 4940000   0.79187736  -0.15547311    1.9535654    1.1516503   -4.4618198    6.4153851    3.1052157 
 4950000   0.79766835  -0.18670646    1.9561908    1.1600723   -4.4567029    6.4128937    3.1162632 
 4960000     0.805278  -0.22617533    1.9484267    1.1711393   -4.4651386    6.4135652     3.119566 
 4970000   0.80170964  -0.25325789    1.9550966    1.1659497   -4.4608168    6.4159134    3.1210463 
 4980000    0.8036551  -0.17632502    1.9493534    1.1687791   -4.4654223    6.4147757    3.1181324 
 4990000    0.7983653  -0.19024369    1.9550596    1.1610859   -4.4609727    6.4160323    3.1161455 
 5000000   0.80404032  -0.22766994    1.9550565    1.1693393   -4.4661007    6.4211573    3.1243958 
 5010000   0.79978657   -0.2092376    1.9494017    1.1631529   -4.4643961    6.4137978    3.1125546 
 5020000   0.79930702  -0.17438982    1.9470963    1.1624555   -4.4663729    6.4134691    3.1095518 
 5030000   0.79882253  -0.18728682    1.9569044    1.1617509    -4.455815    6.4127193    3.1186553 
 5040000   0.79641836  -0.14867422     1.951404    1.1582544   -4.4612491    6.4126531    3.1096584 
 5050000   0.80542861  -0.20712028    1.9501815    1.1713583   -4.4642815     6.414463    3.1215398 
 5060000    0.8079744   -0.1698152    1.9495552    1.1750607   -4.4652306    6.4147858    3.1246159 
 5070000   0.79657717  -0.16998042     1.948919    1.1584854   -4.4628414    6.4117604    3.1074044 
 5080000   0.79765966  -0.23168309    1.9515459    1.1600597   -4.4620016    6.4135475    3.1116056 
 5090000    0.7965163  -0.19459811    1.9525269    1.1583969    -4.462024    6.4145509    3.1109238 
 5100000   0.80573192  -0.16654502     1.952456    1.1717994   -4.4628014    6.4152573    3.1242554 
 5110000   0.79980494  -0.21147984    1.9480078    1.1631797   -4.4655548    6.4135626    3.1111875 
 5120000   0.80077971  -0.17359079    1.9534916    1.1645973   -4.4601004     6.413592    3.1180889 
 5130000   0.80348976  -0.24053569    1.9479109    1.1685386   -4.4666492    6.4145601    3.1164495 
 5140000   0.80296088  -0.21391002    1.9476597    1.1677694   -4.4666406    6.4143003    3.1154291 
 5150000   0.80318193  -0.19588733    1.9486814    1.1680909   -4.4658844    6.4145658    3.1167723 
 5160000   0.79427698  -0.19780306    1.9448046    1.1551402   -4.4677089    6.4125135    3.0999447 
 5170000   0.80220529  -0.20041171    1.9580853    1.1666706   -4.4572895    6.4153748    3.1247558 
 5180000   0.79983947  -0.21976798    1.9547171    1.1632299   -4.4598258    6.4145429     3.117947 
 5190000   0.79302885   -0.2021297    1.9532565     1.153325   -4.4608307    6.4140872    3.1065815 
 5200000   0.80041106  -0.20833308    1.9433703    1.1640611   -4.4683159    6.4116862    3.1074314 
 5210000   0.80230311  -0.19489994    1.9479308    1.1668128   -4.4648186    6.4127494    3.1147436 
 5220000   0.79542928  -0.15518317      1.95834     1.156816   -4.4538804    6.4122204     3.115156 
 5230000   0.80000776  -0.16906732    1.9572344    1.1634746   -4.4563955    6.4136299     3.120709 
 5240000   0.80480578  -0.19592875    1.9519969    1.1704525   -4.4636304    6.4156273    3.1224494 
 5250000   0.80016354  -0.21341119    1.9523879    1.1637012   -4.4608674    6.4132553    3.1160891 
 5260000   0.79823563  -0.21585499    1.9491488    1.1608974   -4.4642766    6.4134253    3.1100461 
 5270000   0.79604518  -0.20201802    1.9482128    1.1577117   -4.4644942     6.412707    3.1059246 
 5280000   0.79758446  -0.15781627    1.9551442    1.1599503   -4.4592802    6.4144245    3.1150946 
 5290000   0.79823576  -0.15031985    1.9458789    1.1608975   -4.4682975    6.4141764    3.1067764 
 5300000   0.79606896  -0.19407834    1.9437014    1.1577463   -4.4645047    6.4082061    3.1014477 
 5310000   0.79879864  -0.19348007    1.9546792    1.1617161   -4.4583551    6.4130343    3.1163954 
 5320000   0.80168095  -0.16188223    1.9544194     1.165908   -4.4576815    6.4121009    3.1203274 
 5330000   0.79778137  -0.17487929     1.951356    1.1602367   -4.4604354    6.4117914    3.1115928 
 5340000   0.79912397  -0.22843213    1.9509755    1.1621893    -4.466187    6.4171626    3.1131648 
 5350000   0.80167562  -0.18347797    1.9562187    1.1659002   -4.4590146    6.4152333    3.1221189 
 5360000   0.79669498 -0.098233648    1.9568411    1.1586567   -4.4579395    6.4147806    3.1154979 
 5370000    0.8067809  -0.18509892    1.9500328     1.173325   -4.4618733    6.4119061    3.1233578 
 5380000   0.79318624  -0.22871597    1.9526517    1.1535539   -4.4605358    6.4131876    3.1062056 
 5390000   0.80373424  -0.13787652    1.9536976    1.1688941   -4.4579343    6.4116319    3.1225918 
 5400000   0.79215537  -0.17662817    1.9474916    1.1520546   -4.4675657    6.4150573    3.0995463 
 5410000   0.80301353   -0.2244807    1.9433214     1.167846   -4.4696102    6.4129316    3.1111674 
 5420000   0.80007595  -0.19281568    1.9538367    1.1635738   -4.4570372    6.4108739    3.1174105 
 5430000   0.79891322  -0.22617424    1.9495447    1.1618828   -4.4647607    6.4143054    3.1114275 
 5440000   0.79456571  -0.23267922    1.9493066    1.1555601   -4.4668043    6.4161109    3.1048667 
 5450000   0.79508067  -0.20383899    1.9482292     1.156309   -4.4651114    6.4133406    3.1045383 
 5460000   0.80096237  -0.18823662    1.9482843    1.1648629   -4.4653981    6.4136823    3.1131472 
 5470000   0.79881133  -0.11037828    1.9559581    1.1617346   -4.4608932    6.4168513    3.1176927 
 5480000    0.8058075  -0.22638482    1.9395323    1.1719094   -4.4746345    6.4141667    3.1114416 
 5490000   0.80059856  -0.22401131    1.9524612    1.1643338   -4.4614754    6.4139366     3.116795 
 5500000   0.80222035  -0.12349714    1.9568302    1.1666924   -4.4555461    6.4123763    3.1235227 
 5510000   0.79884519  -0.17840671    1.9504829    1.1617839   -4.4628958    6.4133787    3.1122667 
 5520000     0.808281  -0.15033324    1.9470766    1.1755066   -4.4674466    6.4145231    3.1225832 
 5530000   0.80502212  -0.22206472    1.9501778    1.1707671   -4.4622441    6.4124219    3.1209449 
 5540000   0.80247577  -0.20285797    1.9495741    1.1670639    -4.463809    6.4133831     3.116638 
 5550000   0.80543781  -0.18241206    1.9500722    1.1713717   -4.4611906    6.4112628    3.1214439 
 5560000   0.79617154  -0.14457936    1.9450821    1.1578955    -4.466515    6.4115971    3.1029776 
 5570000   0.80133188  -0.21403534    1.9443787    1.1654003   -4.4689886    6.4133673     3.109779 
 5580000   0.79636971  -0.19278068    1.9489558    1.1581837   -4.4625077    6.4114635    3.1071395 
 5590000   0.80118279  -0.19558663    1.9472414    1.1651835   -4.4683644    6.4156059    3.1124249 
 5600000   0.80105864  -0.19661063    1.9465972    1.1650029   -4.4653944    6.4119915    3.1116001 
 5610000   0.80122757  -0.16215828    1.9561556    1.1652486   -4.4569087    6.4130643    3.1214042 
 5620000   0.79491156  -0.20702488    1.9529139    1.1560631   -4.4660764    6.4189903     3.108977 
 5630000   0.80097456   -0.1751597    1.9538104    1.1648807    -4.459931    6.4137414    3.1186911 
 5640000   0.80293987  -0.16806755    1.9510822    1.1677389   -4.4612959    6.4123781     3.118821 
 5650000   0.80024761  -0.18319906    1.9529903    1.1638234   -4.4593127     6.412303    3.1168137 
 5660000   0.79517043  -0.17366374    1.9567591    1.1564395   -4.4550268     6.411786    3.1131987 
 5670000    0.7988846  -0.24453876    1.9502078    1.1618412   -4.4664698    6.4166776     3.112049 
 5680000   0.79593589  -0.20374418    1.9388661    1.1575528   -4.4729576    6.4118237    3.0964189 
 5690000   0.80410244  -0.20859782    1.9452939    1.1694296   -4.4691535    6.4144474    3.1147235 
 5700000   0.79025889  -0.14156725    1.9534193    1.1492965    -4.460701    6.4141203    3.1027158 
 5710000   0.80284492  -0.16232904    1.9458601    1.1676008   -4.4672061    6.4130662    3.1134608 
 5720000   0.80996994   -0.2564246    1.9423989    1.1779629   -4.4698673    6.4122662    3.1203618 
 5730000   0.79570305  -0.27801972    1.9494713    1.1572142   -4.4628555    6.4123268    3.1066855 
 5740000   0.80130888  -0.20493599    1.9469287    1.1653669   -4.4677332    6.4146619    3.1122956 
 5750000   0.80556994  -0.16384853    1.9496814    1.1715638   -4.4605096     6.410191    3.1212452 
 5760000   0.80104786  -0.18496279    1.9467066    1.1649873    -4.468332    6.4150386    3.1116939 
 5770000   0.79703979  -0.23224765    1.9463098    1.1591582   -4.4699894    6.4162992     3.105468 
 5780000   0.80335781  -0.18374411    1.9557731    1.1683467   -4.4580649     6.413838    3.1241198 
 5790000    0.7966737  -0.19284669    1.9514579    1.1586258   -4.4636523    6.4151103    3.1100837 
 5800000   0.81110649  -0.19372762    1.9488157    1.1796158   -4.4594678    6.4082834    3.1284315 
 5810000   0.80021986  -0.14603295    1.9495036    1.1637831   -4.4636964    6.4132001    3.1132867 
 5820000   0.80083218  -0.23211148    1.9495831    1.1646736   -4.4656178    6.4152009    3.1142567 
 5830000   0.80692917  -0.19282857    1.9471175    1.1735406   -4.4690506     6.416168    3.1206581 
 5840000   0.79084936  -0.14193271    1.9502249    1.1501553   -4.4650804    6.4153054    3.1003802 
 5850000   0.80066644  -0.17612537    1.9537856    1.1644325   -4.4611786    6.4149641    3.1182181 
 5860000   0.80552593  -0.24657654    1.9561127    1.1714998   -4.4594343     6.415547    3.1276126 
 5870000   0.80043077  -0.13603583    1.9579789    1.1640898   -4.4545195    6.4124984    3.1220687 
 5880000   0.80938198  -0.18246694    1.9477641    1.1771078   -4.4667316    6.4144958     3.124872 
 5890000    0.7969389  -0.21278264    1.9487856    1.1590115     -4.46561    6.4143957    3.1077971 
 5900000   0.80093941  -0.23823621    1.9437841    1.1648295   -4.4690905    6.4128746    3.1086136 
 5910000   0.80488163  -0.18434881    1.9506979    1.1705628   -4.4646575    6.4153554    3.1212607 
 5920000    0.8014409  -0.23566123    1.9487997    1.1655589   -4.4676669    6.4164665    3.1143585 
 5930000   0.79813175  -0.15507521    1.9450139    1.1607463   -4.4683887    6.4134026    3.1057602 
 5940000   0.80387297  -0.18208819    1.9490678    1.1690959   -4.4630965    6.4121643    3.1181637 
 5950000     0.798345  -0.19120816    1.9437998    1.1610564   -4.4702186    6.4140185    3.1048562 
 5960000    0.7941484  -0.16283105    1.9565188    1.1549532    -4.461309    6.4178278     3.111472 
 5970000   0.79670477  -0.28602271    1.9370533     1.158671   -4.4742235    6.4112768    3.0957243 
 5980000   0.80309026  -0.18262261    1.9530384    1.1679576   -4.4576611    6.4106995     3.120996 
 5990000   0.79841267  -0.17067925    1.9541924    1.1611548   -4.4585122    6.4127047    3.1153473 
 6000000    0.8034228  -0.17294773    1.9498698    1.1684412   -4.4636939    6.4135637     3.118311 
Loop time of 55108.9 on 216 procs for 6000000 steps with 27950 atoms

Performance: 47034.109 tau/day, 108.875 timesteps/s
99.9% CPU use with 216 MPI tasks x 1 OpenMP threads

MPI task timing breakdown:
Section |  min time  |  avg time  |  max time  |%varavg| %total
---------------------------------------------------------------
Pair    | 610.11     | 714.8      | 894.77     | 203.0 |  1.30
Bond    | 15.024     | 17.249     | 19.649     |  21.5 |  0.03
Kspace  | 48849      | 49086      | 49232      |  34.2 | 89.07
Neigh   | 666.04     | 700.48     | 740.5      |  65.6 |  1.27
Comm    | 1192.5     | 1515.3     | 1760.5     | 330.7 |  2.75
Output  | 2.6746     | 2.719      | 2.7292     |   0.4 |  0.00
Modify  | 2511.5     | 2655.8     | 2857.5     | 155.2 |  4.82
Other   |            | 416.4      |            |       |  0.76

Nlocal:    129.398 ave 194 max 105 min
Histogram: 7 50 89 43 14 7 2 1 1 2
Nghost:    958.407 ave 1076 max 854 min
Histogram: 2 7 19 42 55 53 24 6 5 3
Neighs:    4755.44 ave 10248 max 3331 min
Histogram: 18 110 61 14 8 1 1 1 1 1

Total # of neighbors = 1027174
Ave neighs/atom = 36.7504
Ave special neighs/atom = 0.62254
Neighbor list builds = 806815
Dangerous builds = 0
System init for write_restart ...
PPPM initialization ...
  using 12-bit tables for long-range coulomb (src/kspace.cpp:332)
  G vector (1/distance) = 1.14923
  grid = 90 90 90
  stencil order = 5
  estimated absolute RMS force accuracy = 0.00011112
  estimated relative force accuracy = 0.00011112
  using double precision FFTW3
  3d grid and FFT values/proc = 8000 3600
WARNING: Neighbor exclusions used with KSpace solver may give inconsistent Coulombic energies (src/neighbor.cpp:486)
Neighbor list info ...
  update every 1 steps, delay 0 steps, check yes
  max neighbors/atom: 2000, page size: 100000
  master list distance cutoff = 2.8
  ghost atom cutoff = 2.8
  binsize = 1.4, bins = 24 24 24
  12 neighbor lists, perpetual/occasional/extra = 2 10 0
  (1) pair lj/cut, perpetual
      attributes: half, newton on
      pair build: half/bin/newton
      stencil: half/bin/3d/newton
      bin: standard
  (2) pair coul/long, perpetual, skip from (1)
      attributes: half, newton on
      pair build: skip
      stencil: none
      bin: none
  (3) compute rdf, occasional, copy from (1)
      attributes: half, newton on
      pair build: copy
      stencil: none
      bin: none
  (4) compute rdf, occasional, copy from (1)
      attributes: half, newton on
      pair build: copy
      stencil: none
      bin: none
  (5) compute rdf, occasional, copy from (1)
      attributes: half, newton on
      pair build: copy
      stencil: none
      bin: none
  (6) compute rdf, occasional, copy from (1)
      attributes: half, newton on
      pair build: copy
      stencil: none
      bin: none
  (7) compute rdf, occasional, copy from (1)
      attributes: half, newton on
      pair build: copy
      stencil: none
      bin: none
  (8) compute rdf, occasional, copy from (1)
      attributes: half, newton on
      pair build: copy
      stencil: none
      bin: none
  (9) compute rdf, occasional, copy from (1)
      attributes: half, newton on
      pair build: copy
      stencil: none
      bin: none
  (10) compute rdf, occasional, copy from (1)
      attributes: half, newton on
      pair build: copy
      stencil: none
      bin: none
  (11) compute rdf, occasional, copy from (1)
      attributes: half, newton on
      pair build: copy
      stencil: none
      bin: none
  (12) compute rdf, occasional, copy from (1)
      attributes: half, newton on
      pair build: copy
      stencil: none
      bin: none
PPPM initialization ...
  using 12-bit tables for long-range coulomb (src/kspace.cpp:332)
  G vector (1/distance) = 1.14923
  grid = 90 90 90
  stencil order = 5
  estimated absolute RMS force accuracy = 0.00011112
  estimated relative force accuracy = 0.00011112
  using double precision FFTW3
  3d grid and FFT values/proc = 8000 3600
WARNING: Neighbor exclusions used with KSpace solver may give inconsistent Coulombic energies (src/neighbor.cpp:486)
Neighbor list info ...
  update every 1 steps, delay 0 steps, check yes
  max neighbors/atom: 2000, page size: 100000
  master list distance cutoff = 2.8
  ghost atom cutoff = 2.8
  binsize = 1.4, bins = 24 24 24
  12 neighbor lists, perpetual/occasional/extra = 2 10 0
  (1) pair lj/cut, perpetual
      attributes: half, newton on
      pair build: half/bin/newton
      stencil: half/bin/3d/newton
      bin: standard
  (2) pair coul/long, perpetual, skip from (1)
      attributes: half, newton on
      pair build: skip
      stencil: none
      bin: none
  (3) compute rdf, occasional, copy from (1)
      attributes: half, newton on
      pair build: copy
      stencil: none
      bin: none
  (4) compute rdf, occasional, copy from (1)
      attributes: half, newton on
      pair build: copy
      stencil: none
      bin: none
  (5) compute rdf, occasional, copy from (1)
      attributes: half, newton on
      pair build: copy
      stencil: none
      bin: none
  (6) compute rdf, occasional, copy from (1)
      attributes: half, newton on
      pair build: copy
      stencil: none
      bin: none
  (7) compute rdf, occasional, copy from (1)
      attributes: half, newton on
      pair build: copy
      stencil: none
      bin: none
  (8) compute rdf, occasional, copy from (1)
      attributes: half, newton on
      pair build: copy
      stencil: none
      bin: none
  (9) compute rdf, occasional, copy from (1)
      attributes: half, newton on
      pair build: copy
      stencil: none
      bin: none
  (10) compute rdf, occasional, copy from (1)
      attributes: half, newton on
      pair build: copy
      stencil: none
      bin: none
  (11) compute rdf, occasional, copy from (1)
      attributes: half, newton on
      pair build: copy
      stencil: none
      bin: none
  (12) compute rdf, occasional, copy from (1)
      attributes: half, newton on
      pair build: copy
      stencil: none
      bin: none
Setting up Verlet run ...
  Unit style    : lj
  Current step  : 6000000
  Time step     : 0.005
Per MPI rank memory allocation (min/avg/max) = 17.72 | 19.13 | 19.75 Mbytes
Step Lx Ly Lz Press Pxx Pyy Pzz PotEng Temp 
 6000000     32.52804     32.52804     32.52804 -0.043413566  -0.30990119  0.038165227   0.14149527    1.9498698    0.8034228 
 6000010    33.178601    32.207559    32.207559 -0.095088919  -0.98451673   0.38614885   0.31310112    1.9608491    0.8084843 
 6000020    33.829161    31.896367    31.896367 -0.089781908   -1.0494676   0.44741416   0.33270768    1.9792218   0.81992494 
 6000030    34.479722    31.594025    31.594025  0.016436238   -1.1479308   0.64219357   0.55504592    1.9966331   0.83176861 
 6000040    35.130283    31.300121    31.300121   0.11694066   -1.2047056   0.76803322   0.78749438    2.0137885   0.84806311 
 6000050    35.780844    31.014269    31.014269   0.21385726   -1.1204398   0.90436368   0.85764789    2.0406877   0.85755614 
 6000060    36.431405    30.736109    30.736109   0.26897451   -1.1060059   0.93124294   0.98168647    2.0539483   0.87542949 
 6000070    37.081965    30.465301    30.465301   0.35363746  -0.93081379    1.0171786   0.97454757    2.0659513   0.89301508 
 6000080    37.732526    30.201527    30.201527   0.45524904  -0.86049119    1.1107208    1.1155176    2.0825766   0.90603247 
 6000090    38.383087    29.944488    29.944488   0.49926412  -0.81972738    1.1272451    1.1902746    2.0964139    0.9210009 
 6000100    39.033648    29.693902    29.693902   0.59895027  -0.63994007    1.1950728    1.2417181    2.1067536   0.93560337 
Loop time of 1.12507 on 216 procs for 100 steps with 27950 atoms

Performance: 38397.449 tau/day, 88.883 timesteps/s
99.9% CPU use with 216 MPI tasks x 1 OpenMP threads

MPI task timing breakdown:
Section |  min time  |  avg time  |  max time  |%varavg| %total
---------------------------------------------------------------
Pair    | 0.0071995  | 0.011355   | 0.038077   |   4.0 |  1.01
Bond    | 9.0599e-05 | 0.00022209 | 0.000494   |   0.0 |  0.02
Kspace  | 0.79815    | 0.82227    | 0.83306    |   0.7 | 73.09
Neigh   | 0.04039    | 0.043117   | 0.046501   |   0.7 |  3.83
Comm    | 0.034747   | 0.047249   | 0.060323   |   2.4 |  4.20
Output  | 0.0053494  | 0.011056   | 0.013768   |   0.9 |  0.98
Modify  | 0.1007     | 0.12293    | 0.15152    |   2.5 | 10.93
Other   |            | 0.06688    |            |       |  5.94

Nlocal:    129.398 ave 196 max 108 min
Histogram: 11 71 88 27 10 5 0 0 2 2
Nghost:    962.616 ave 1082 max 869 min
Histogram: 1 9 24 60 57 36 16 8 1 4
Neighs:    4765.16 ave 9990 max 3339 min
Histogram: 16 98 73 16 8 1 1 0 1 2

Total # of neighbors = 1029275
Ave neighs/atom = 36.8256
Ave special neighs/atom = 0.62254
Neighbor list builds = 49
Dangerous builds = 0
PPPM initialization ...
  using 12-bit tables for long-range coulomb (src/kspace.cpp:332)
  G vector (1/distance) = 1.13918
  grid = 100 81 81
  stencil order = 5
  estimated absolute RMS force accuracy = 0.000129695
  estimated relative force accuracy = 0.000129695
  using double precision FFTW3
  3d grid and FFT values/proc = 8303 3500
WARNING: Neighbor exclusions used with KSpace solver may give inconsistent Coulombic energies (src/neighbor.cpp:486)
Neighbor list info ...
  update every 1 steps, delay 0 steps, check yes
  max neighbors/atom: 2000, page size: 100000
  master list distance cutoff = 2.8
  ghost atom cutoff = 2.8
  binsize = 1.4, bins = 28 22 22
  12 neighbor lists, perpetual/occasional/extra = 2 10 0
  (1) pair lj/cut, perpetual
      attributes: half, newton on
      pair build: half/bin/newton
      stencil: half/bin/3d/newton
      bin: standard
  (2) pair coul/long, perpetual, skip from (1)
      attributes: half, newton on
      pair build: skip
      stencil: none
      bin: none
  (3) compute rdf, occasional, copy from (1)
      attributes: half, newton on
      pair build: copy
      stencil: none
      bin: none
  (4) compute rdf, occasional, copy from (1)
      attributes: half, newton on
      pair build: copy
      stencil: none
      bin: none
  (5) compute rdf, occasional, copy from (1)
      attributes: half, newton on
      pair build: copy
      stencil: none
      bin: none
  (6) compute rdf, occasional, copy from (1)
      attributes: half, newton on
      pair build: copy
      stencil: none
      bin: none
  (7) compute rdf, occasional, copy from (1)
      attributes: half, newton on
      pair build: copy
      stencil: none
      bin: none
  (8) compute rdf, occasional, copy from (1)
      attributes: half, newton on
      pair build: copy
      stencil: none
      bin: none
  (9) compute rdf, occasional, copy from (1)
      attributes: half, newton on
      pair build: copy
      stencil: none
      bin: none
  (10) compute rdf, occasional, copy from (1)
      attributes: half, newton on
      pair build: copy
      stencil: none
      bin: none
  (11) compute rdf, occasional, copy from (1)
      attributes: half, newton on
      pair build: copy
      stencil: none
      bin: none
  (12) compute rdf, occasional, copy from (1)
      attributes: half, newton on
      pair build: copy
      stencil: none
      bin: none
Setting up Verlet run ...
  Unit style    : lj
  Current step  : 6000100
  Time step     : 0.005
Per MPI rank memory allocation (min/avg/max) = 17.69 | 19.13 | 19.77 Mbytes
Step Lx Ly Lz Press Pxx Pyy Pzz PotEng Temp 
 6000100    39.033648    29.693902    29.693902   0.71254617  -0.59152773    1.7022491    1.0269171    2.1080777   0.93560337 
 6010000    39.033648    29.693902    29.693902  -0.14658437  -0.12851254  -0.17660892  -0.13463166     1.950301   0.79862664 
 6020000    39.033648    29.693902    29.693902  -0.15749072  -0.18972657  -0.16502398   -0.1177216    1.9545801   0.79913684 
 6030000    39.033648    29.693902    29.693902  -0.24916569  -0.24601654  -0.26609921  -0.23538132    1.9430126   0.80342132 
 6040000    39.033648    29.693902    29.693902  -0.27481588  -0.32852767  -0.26885351  -0.22706647    1.9381515   0.80414514 
 6050000    39.033648    29.693902    29.693902  -0.18345593   -0.1549749  -0.23606409  -0.15932879    1.9472395   0.80068215 
 6060000    39.033648    29.693902    29.693902  -0.19006424  -0.20326275  -0.15938435  -0.20754561    1.9398962   0.80199975 
 6070000    39.033648    29.693902    29.693902  -0.17936355  -0.17223072  -0.18032933  -0.18553059    1.9391373   0.79908992 
 6080000    39.033648    29.693902    29.693902  -0.23611595  -0.22947354  -0.21787311  -0.26100121    1.9466516   0.79735995 
 6090000    39.033648    29.693902    29.693902  -0.23746823  -0.17185451  -0.25044053  -0.29010965     1.943814   0.80225436 
 6100000    39.033648    29.693902    29.693902  -0.19131638  -0.16744835  -0.19725053  -0.20925027    1.9468347   0.80630283 
 6100100    39.033648    29.693902    29.693902  -0.20350989  -0.14144208  -0.25431976  -0.21476781    1.9478883    0.8008246 
Loop time of 870.504 on 216 procs for 100000 steps with 27950 atoms

Performance: 49626.445 tau/day, 114.876 timesteps/s
99.9% CPU use with 216 MPI tasks x 1 OpenMP threads

MPI task timing breakdown:
Section |  min time  |  avg time  |  max time  |%varavg| %total
---------------------------------------------------------------
Pair    | 7.5552     | 11.369     | 42.84      | 120.0 |  1.31
Bond    | 0.12607    | 0.23543    | 0.35978    |   7.1 |  0.03
Kspace  | 754.87     | 779.35     | 789.14     |  19.5 | 89.53
Neigh   | 11.803     | 12.525     | 13.309     |   8.3 |  1.44
Comm    | 21.258     | 29.133     | 38.476     |  58.4 |  3.35
Output  | 0.042263   | 0.042306   | 0.042994   |   0.0 |  0.00
Modify  | 23.965     | 29.714     | 36.848     |  56.6 |  3.41
Other   |            | 8.139      |            |       |  0.93

Nlocal:    129.398 ave 202 max 103 min
Histogram: 2 53 100 40 12 4 3 1 0 1
Nghost:    962.731 ave 1068 max 894 min
Histogram: 8 24 34 49 46 29 11 7 6 2
Neighs:    4754.7 ave 10306 max 3200 min
Histogram: 11 111 60 21 7 4 1 0 0 1

Total # of neighbors = 1027016
Ave neighs/atom = 36.7448
Ave special neighs/atom = 0.62254
Neighbor list builds = 13441
Dangerous builds = 0
Total wall time: 18:02:28
