LAMMPS (3 Mar 2020)
OMP_NUM_THREADS environment is not set. Defaulting to 1 thread. (src/comm.cpp:94)
  using 1 OpenMP thread(s) per MPI task
Reading data file ...
  orthogonal box = (0 0 0) to (34 34 34)
  6 by 6 by 6 MPI processor grid
  reading atoms ...
  28900 atoms
  scanning bonds ...
  1 = max bonds/atom
  reading bonds ...
  8700 bonds
Finding 1-2 1-3 1-4 neighbors ...
  special bond factors lj:   0          0          0         
  special bond factors coul: 0          0          0         
  2 = max # of 1-2 neighbors
  2 = max # of 1-3 neighbors
  4 = max # of 1-4 neighbors
  6 = max # of special neighbors
  special bonds CPU = 2.47303 secs
  read_data CPU = 2.68212 secs
6000 atoms in group polyA
3000 atoms in group sticker
3000 atoms in group counterions
9000 atoms in group chain
1900 atoms in group filler
13100 atoms in group water
1900 atoms in group salt
27000 atoms in group exc
Finding 1-2 1-3 1-4 neighbors ...
  special bond factors lj:   0          1          1         
  special bond factors coul: 0          1          1         
  2 = max # of 1-2 neighbors
  6 = max # of special neighbors
  special bonds CPU = 0.0181684 secs
100 rigid bodies with 1900 atoms
Neighbor list info ...
  update every 1 steps, delay 0 steps, check yes
  max neighbors/atom: 2000, page size: 100000
  master list distance cutoff = 1.7
  ghost atom cutoff = 1.7
  binsize = 0.85, bins = 40 40 40
  1 neighbor lists, perpetual/occasional/extra = 1 0 0
  (1) pair soft, perpetual
      attributes: half, newton on
      pair build: half/bin/newton
      stencil: half/bin/3d/newton
      bin: standard
Setting up Verlet run ...
  Unit style    : lj
  Current step  : 0
  Time step     : 0.005
WARNING: Communication cutoff 1.7 is shorter than a bond length based estimate of 1.755. This may lead to errors. (src/comm.cpp:686)
Per MPI rank memory allocation (min/avg/max) = 13.02 | 14.55 | 15.14 Mbytes
Step Temp Press TotEng Volume 
       0   0.79936292    5.4524228     18.21603        39304 
   10000   0.80211171    11.345596    11.978388        39304 
   20000   0.79929976    12.742425    12.343522        39304 
   30000   0.80418593    14.147907    12.686213        39304 
   40000   0.80472924    15.546188      13.0245        39304 
   50000   0.80253585    16.950498    13.339116        39304 
   60000   0.80514104    18.328837     13.67473        39304 
   70000   0.79919517     19.76451    14.000701        39304 
   80000    0.8042495    21.097444    14.321772        39304 
   90000   0.80596247    22.452811    14.650682        39304 
  100000   0.80387628    23.872705    14.988007        39304 
  110000   0.79930154    25.309778    15.317637        39304 
  120000   0.79926455    26.595741    15.683684        39304 
  130000   0.80486324      28.0129    16.028753        39304 
  140000   0.79654533    29.377769    16.389473        39304 
  150000   0.80549428    30.718398    16.759653        39304 
  160000   0.79699668    32.071995    17.113213        39304 
  170000   0.79636036    33.392548    17.478004        39304 
  180000    0.8012147    34.808118    17.833087        39304 
  190000   0.79655592    36.152566    18.208333        39304 
  200000   0.79280351    37.550236    18.567148        39304 
  210000   0.79568044    38.870111    18.932691        39304 
  220000   0.80291304    40.223225    19.315214        39304 
  230000   0.79283273    41.593016    19.651914        39304 
  240000    0.7978104    42.914649    20.026957        39304 
  250000   0.80327134    44.333734    20.404396        39304 
  260000   0.80418606    45.675895    20.768871        39304 
  270000   0.80165997    47.052993    21.138483        39304 
  280000   0.78936639      48.3479    21.475387        39304 
  290000   0.79948908    49.679101    21.858967        39304 
  300000   0.80502656    51.047652    22.223889        39304 
  310000   0.79957753     52.34263    22.591473        39304 
  320000   0.79879945    53.721794    22.948057        39304 
  330000   0.80249589    55.070489    23.310338        39304 
  340000   0.80024773    56.433761    23.673497        39304 
  350000   0.80430002    57.744224    24.052201        39304 
  360000   0.80053177    59.149513    24.406093        39304 
  370000   0.79999283    60.435259    24.771183        39304 
  380000   0.81015712    61.751325    25.150673        39304 
  390000   0.79687574    63.153944     25.48708        39304 
  400000   0.79904206    64.441749    25.858151        39304 
  410000   0.80421693    65.721021    26.227852        39304 
  420000   0.80039103    67.108423    26.591077        39304 
  430000   0.79739963    68.327116    26.946036        39304 
  440000   0.80371115    69.754448    27.316649        39304 
  450000   0.80324146    71.101363    27.668497        39304 
  460000   0.80169525    72.369136    28.040448        39304 
  470000   0.79346317    73.681959    28.394963        39304 
  480000   0.80049241    75.039008    28.747338        39304 
  490000   0.80567597    76.307574    29.120224        39304 
  500000   0.79983093    77.615798    29.483535        39304 
  510000   0.79513612    78.979602    29.837137        39304 
  520000    0.8020352    80.259683    30.190296        39304 
  530000   0.80016969    81.610401    30.565021        39304 
  540000   0.79920792      82.8871    30.916102        39304 
  550000   0.80058607      84.2379    31.267439        39304 
  560000   0.79180467    85.584343    31.634862        39304 
  570000   0.80521441    86.921333    32.004918        39304 
  580000   0.80127216    88.199084    32.347662        39304 
  590000   0.79413016    89.570661    32.704986        39304 
  600000   0.79588827    90.787632    33.079934        39304 
  610000   0.80618653    92.083107    33.435502        39304 
  620000   0.80262532    93.456652    33.782897        39304 
  630000   0.80604246    94.764877    34.161054        39304 
  640000    0.7930394    96.030813    34.495934        39304 
  650000    0.7981153    97.368822    34.863845        39304 
  660000    0.8025027    98.700889      35.2225        39304 
  670000   0.80027591    99.944565     35.58206        39304 
  680000   0.79877925    101.31738    35.942857        39304 
  690000   0.79704438    102.54919    36.289476        39304 
  700000    0.8007285    103.88543    36.648654        39304 
  710000   0.79323495    105.20623    37.005566        39304 
  720000   0.80070758    106.43425    37.369602        39304 
  730000   0.80610673    107.69721    37.726164        39304 
  740000    0.7908577    109.04062    38.068898        39304 
  750000    0.7996261    110.40908    38.439592        39304 
  760000   0.80052623    111.70084    38.785539        39304 
  770000   0.80112569    113.01674    39.149366        39304 
  780000   0.80045067    114.32123    39.508415        39304 
  790000   0.79618472    115.56246    39.849053        39304 
  800000   0.80151838    116.82255    40.232526        39304 
  810000   0.79874102    118.28099    40.570184        39304 
  820000   0.79629552    119.39829    40.921033        39304 
  830000   0.79885129    120.85165    41.281611        39304 
  840000   0.79724207    122.02143    41.639401        39304 
  850000   0.80069635    123.33078    42.000566        39304 
  860000   0.79491082    124.58711    42.335095        39304 
  870000   0.80119336    125.87323    42.694452        39304 
  880000   0.79975662    127.22321    43.058081        39304 
  890000   0.80307849    128.56983    43.414239        39304 
  900000   0.80368259    129.83099    43.768137        39304 
  910000   0.79838554    131.03309    44.113017        39304 
  920000    0.7989643    132.26194    44.462552        39304 
  930000   0.79603676    133.60286    44.821308        39304 
  940000     0.800506    135.00365    45.178842        39304 
  950000   0.79833159    136.19065    45.536381        39304 
  960000   0.80822427    137.47972    45.895907        39304 
  970000   0.80201865    138.75151    46.232692        39304 
  980000   0.79760248    140.02546    46.594695        39304 
  990000   0.79609925    141.34312    46.940023        39304 
 1000000   0.80616992    142.63743    47.309158        39304 
 1010000   0.79683584    143.86289    47.637436        39304 
 1020000   0.79929768    145.16611    48.009062        39304 
 1030000   0.79969372    146.42787    48.350099        39304 
 1040000   0.80456881    147.76017    48.718028        39304 
 1050000   0.80250021    149.01195    49.049054        39304 
 1060000   0.80845505      150.339    49.438314        39304 
 1070000   0.79412783    151.59723    49.751501        39304 
 1080000    0.7962695     152.8422    50.103407        39304 
 1090000   0.79851868    154.07254    50.459484        39304 
 1100000   0.79646276    155.42124    50.813175        39304 
 1110000   0.79041778    156.65106    51.153832        39304 
 1120000   0.80441495    157.88692    51.529955        39304 
 1130000   0.80293881    159.27129     51.88821        39304 
 1140000   0.79834969    160.53744     52.22537        39304 
 1150000   0.79864158    161.80874    52.569132        39304 
 1160000   0.80145738    163.02876    52.918998        39304 
 1170000   0.79941282    164.35492    53.265639        39304 
 1180000   0.80370793    165.55581    53.641484        39304 
 1190000   0.79879029    166.90838    53.983175        39304 
 1200000   0.79664627    168.13093    54.327249        39304 
 1210000   0.79652493    169.39929    54.677233        39304 
 1220000   0.79218004    170.56749    55.015375        39304 
 1230000   0.79419721    171.96827    55.367426        39304 
 1240000    0.7984228    173.29488    55.729618        39304 
 1250000   0.79923426    174.41996    56.080913        39304 
 1260000   0.80531034    175.73122     56.44026        39304 
 1270000   0.80204073      177.058     56.77906        39304 
 1280000   0.79407764    178.26785    57.121683        39304 
 1290000    0.8028467    179.46468    57.488578        39304 
 1300000   0.79557014    180.89759    57.818034        39304 
 1310000   0.79916094    182.01958    58.178359        39304 
 1320000   0.79821841    183.44281    58.525813        39304 
 1330000   0.80266208     184.6765    58.878229        39304 
 1340000   0.79693558    185.90752    59.218534        39304 
 1350000   0.79854722    187.13006    59.569715        39304 
 1360000     0.799083    188.31719    59.913702        39304 
 1370000    0.8035392    189.63998    60.272497        39304 
 1380000   0.80137476    191.03841    60.613016        39304 
 1390000    0.7997274    192.26488    60.968225        39304 
 1400000   0.79793525    193.57013    61.310788        39304 
 1410000   0.80455736    194.77963    61.673131        39304 
 1420000   0.79470281    196.06464    61.992177        39304 
 1430000   0.80058468    197.44028    62.373082        39304 
 1440000   0.80756393    198.50203    62.723869        39304 
 1450000   0.79915197       199.89    63.056731        39304 
 1460000   0.80196877    201.08242    63.411022        39304 
 1470000   0.80331626    202.28796    63.749123        39304 
 1480000   0.80431573    203.56848    64.105845        39304 
 1490000   0.79366848    204.93477    64.434731        39304 
 1500000   0.80193535    206.18461    64.799424        39304 
 1510000   0.80025998    207.40692    65.133561        39304 
 1520000   0.80276251    208.77615    65.504391        39304 
 1530000   0.80344485    209.99589    65.841552        39304 
 1540000   0.80834417    211.18253    66.186182        39304 
 1550000   0.79952179    212.43023    66.531433        39304 
 1560000     0.794294    213.71568    66.871858        39304 
 1570000   0.79755507    214.95321    67.217447        39304 
 1580000   0.79754588    216.25807    67.561328        39304 
 1590000   0.80389847    217.39652    67.917462        39304 
 1600000   0.79978459    218.75747    68.257591        39304 
 1610000   0.80365206    220.02028    68.612959        39304 
 1620000   0.80137366    221.28838    68.953251        39304 
 1630000   0.79336324    222.47662    69.287901        39304 
 1640000   0.80366934    223.79374    69.655947        39304 
 1650000   0.79759899     224.9992    69.987373        39304 
 1660000    0.7962898    226.29428    70.340872        39304 
 1670000    0.7998137    227.54352    70.684632        39304 
 1680000   0.80139799    228.77488    71.027026        39304 
 1690000   0.80952341    230.08026    71.388832        39304 
 1700000   0.79946399    231.24781    71.719206        39304 
 1710000   0.79469448    232.63055    72.052256        39304 
 1720000   0.80062925    233.77072    72.416575        39304 
 1730000   0.79876599    235.11995    72.755415        39304 
 1740000   0.79832647    236.33083    73.109977        39304 
 1750000   0.79999779    237.56381    73.457835        39304 
 1760000   0.80766065    238.81275    73.810186        39304 
 1770000    0.7953857    240.14934    74.140764        39304 
 1780000   0.79488482    241.32905    74.481111        39304 
 1790000   0.79578696    242.55085    74.812036        39304 
 1800000   0.79631221    243.77382    75.180437        39304 
 1810000   0.79835078    245.15894    75.531043        39304 
 1820000   0.79586607    246.39104    75.856671        39304 
 1830000   0.79863868    247.62967    76.197247        39304 
 1840000   0.80557043    248.98637    76.562149        39304 
 1850000    0.7996227    250.03719    76.893836        39304 
 1860000   0.79819871    251.32255    77.248126        39304 
 1870000   0.80278798    252.64552    77.598842        39304 
 1880000   0.79540977    253.91454    77.924573        39304 
 1890000   0.79626542    255.16593    78.266021        39304 
 1900000   0.80045131    256.28191    78.616421        39304 
 1910000   0.79893603    257.52769    78.950364        39304 
 1920000   0.80122685    258.69984     79.30036        39304 
 1930000    0.8050489    260.14934    79.657325        39304 
 1940000   0.79967946     261.2341    79.993064        39304 
 1950000   0.80262498    262.67774    80.347564        39304 
 1960000   0.80056304    263.78226    80.687913        39304 
 1970000   0.79957683      264.852    81.031699        39304 
 1980000    0.8006476    266.41668    81.370649        39304 
 1990000   0.79828254    267.61002    81.709031        39304 
 2000000   0.79682015    268.76689     82.05276        39304 
Loop time of 1108.87 on 216 procs for 2000000 steps with 28900 atoms

Performance: 779175.021 tau/day, 1803.646 timesteps/s
99.9% CPU use with 216 MPI tasks x 1 OpenMP threads

MPI task timing breakdown:
Section |  min time  |  avg time  |  max time  |%varavg| %total
---------------------------------------------------------------
Pair    | 131.37     | 140.15     | 160.43     |  44.7 | 12.64
Bond    | 1.0055     | 2.8547     | 5.2241     |  46.9 |  0.26
Neigh   | 73.116     | 79.868     | 85.497     |  24.0 |  7.20
Comm    | 256.88     | 298.32     | 328.08     |  85.0 | 26.90
Output  | 0.62475    | 0.62853    | 0.64497    |   0.2 |  0.06
Modify  | 416.21     | 441.25     | 491.75     |  58.0 | 39.79
Other   |            | 145.8      |            |       | 13.15

Nlocal:    133.796 ave 218 max 117 min
Histogram: 52 119 31 6 3 3 0 1 0 1
Nghost:    414.014 ave 470 max 382 min
Histogram: 8 24 55 56 32 15 15 7 2 2
Neighs:    923.472 ave 1661 max 781 min
Histogram: 62 110 28 8 2 3 1 1 0 1

Total # of neighbors = 199470
Ave neighs/atom = 6.90208
Ave special neighs/atom = 0.602076
Neighbor list builds = 237295
Dangerous builds = 0
System init for write_data ...
Neighbor list info ...
  update every 1 steps, delay 0 steps, check yes
  max neighbors/atom: 2000, page size: 100000
  master list distance cutoff = 2.8
  ghost atom cutoff = 2.8
  binsize = 1.4, bins = 25 25 25
  1 neighbor lists, perpetual/occasional/extra = 1 0 0
  (1) pair lj/cut, perpetual
      attributes: half, newton on
      pair build: half/bin/newton
      stencil: half/bin/3d/newton
      bin: standard
Setting up Verlet run ...
  Unit style    : lj
  Current step  : 2000000
  Time step     : 0.005
Per MPI rank memory allocation (min/avg/max) = 13.17 | 14.68 | 15.17 Mbytes
Step Temp Press TotEng Volume 
 2000000   0.79682015    9.6471779     5.121762        39304 
 2010000   0.79773405  -0.23589729    2.2120294    35431.164 
 2020000   0.80360013  -0.24102984    2.2181777    35387.256 
 2030000   0.80151127  -0.23681656    2.2156218    35466.976 
 2040000   0.80228276  -0.24300334    2.2267919    35557.523 
 2050000   0.79836198  -0.24373316     2.236912    35642.947 
 2060000   0.79910868  -0.23085371    2.2190945    35467.842 
 2070000   0.80313948   -0.2401028    2.2193995    35460.109 
 2080000   0.80578307  -0.24151055    2.2374624    35563.251 
 2090000   0.80051448  -0.24213581    2.2070017    35441.661 
 2100000   0.80504553  -0.23835609    2.2281083    35476.462 
 2110000   0.79804669  -0.23996618    2.2329437    35622.427 
 2120000   0.79825015  -0.23759604    2.2147913     35480.86 
 2130000   0.79862971   -0.2420753    2.2173945     35485.66 
 2140000   0.80137919  -0.24456736    2.2134289    35530.286 
 2150000   0.80290996  -0.24392422    2.2351643     35606.27 
 2160000   0.80674374   -0.2416604    2.2151798    35396.224 
 2170000    0.7919068  -0.23993929     2.192652    35387.755 
 2180000   0.80022833  -0.23682432    2.2355077    35637.493 
 2190000   0.79617412  -0.23549597    2.2308881    35619.567 
 2200000   0.80344467  -0.23258514    2.2254135    35502.025 
 2210000   0.80084787  -0.24207844     2.225867    35502.239 
 2220000   0.79994491  -0.24206184    2.2038311    35385.139 
 2230000   0.79832435  -0.23797034    2.2078956    35467.388 
 2240000   0.80254451  -0.23849741    2.2239794    35588.154 
 2250000    0.7959449  -0.23616022    2.2164263    35537.051 
 2260000   0.79941875   -0.2351256     2.222385    35537.433 
 2270000    0.8001491  -0.24518871    2.2093686    35429.283 
 2280000   0.79306603  -0.23778189    2.2003921    35429.912 
 2290000   0.80753702  -0.24122051     2.214945    35449.848 
 2300000    0.7970625  -0.23644099    2.2207645    35511.064 
 2310000   0.79371926  -0.22876415    2.2014719    35409.812 
 2320000    0.8073006  -0.24224792     2.227593    35477.067 
 2330000   0.79030994  -0.24103706    2.2130975    35566.098 
 2340000   0.79944629  -0.23560963    2.2167175    35475.644 
 2350000   0.80535058  -0.24198242    2.2267721    35540.288 
 2360000   0.80198294   -0.2361101    2.2309418    35539.942 
 2370000   0.80704509   -0.2434242    2.2138256    35393.543 
 2380000   0.80016765  -0.24176881    2.2224249    35492.438 
 2390000   0.80639154  -0.24082257    2.2186504    35482.476 
 2400000   0.79980578  -0.24638646    2.2072286    35419.478 
 2410000   0.79787992  -0.23928508    2.2226824    35564.579 
 2420000   0.80303301  -0.23445138    2.2304892     35569.42 
 2430000   0.79817084  -0.23081531     2.199392    35424.486 
 2440000    0.7961223  -0.24350396    2.1970057    35352.011 
 2450000   0.80297145  -0.24834881    2.1917496    35283.748 
 2460000   0.79764103  -0.24379406    2.2081128    35455.578 
 2470000   0.80077076  -0.23245006    2.2311829    35514.173 
 2480000   0.79969698  -0.23992434    2.1971069    35363.041 
 2490000   0.80219462  -0.24539389    2.2078629    35403.838 
 2500000   0.79091292  -0.24317885    2.2017069    35449.107 
 2510000   0.79339152  -0.23818185    2.2005704    35451.332 
 2520000   0.79931593  -0.23945803    2.1888267     35341.82 
 2530000    0.7997548  -0.24928826    2.2061009    35388.731 
 2540000   0.79959011   -0.2340173    2.2121602    35446.935 
 2550000   0.80676921  -0.23405457    2.2115887    35433.413 
 2560000   0.80135857  -0.23644046    2.2038103    35396.671 
 2570000   0.79516872  -0.24458195    2.2246989    35624.743 
 2580000   0.80716573  -0.23969609    2.2222908    35457.504 
 2590000   0.80526086  -0.24151483    2.2307778    35544.676 
 2600000   0.80646218  -0.24274384    2.2266553    35524.079 
 2610000   0.80126335  -0.23705426    2.2100392    35464.117 
 2620000   0.80583276  -0.23526341    2.2165498    35451.487 
 2630000    0.7949678   -0.2515526    2.1959952    35411.234 
 2640000   0.80082438  -0.23454638    2.2027886    35445.548 
 2650000   0.80003296  -0.24444877    2.2103966     35423.06 
 2660000   0.79984462  -0.24278736    2.2145052    35460.456 
 2670000   0.79235785  -0.23925708    2.1842141    35334.329 
 2680000   0.80179599  -0.23484405    2.2050089    35410.429 
 2690000   0.79723548  -0.24979878    2.1979112     35388.73 
 2700000   0.80644123  -0.24543642    2.2134616    35412.629 
 2710000     0.801615  -0.24400575    2.2038206    35397.074 
 2720000   0.80529084  -0.24577191    2.2131719    35445.161 
 2730000    0.7951765    -0.237141    2.1843548    35348.388 
 2740000   0.80167549  -0.24994788    2.2036129    35463.726 
 2750000   0.80811678  -0.23586455    2.2124818    35444.584 
 2760000   0.79829803  -0.23664077    2.1892211    35357.762 
 2770000   0.79952072  -0.24083968    2.1909685    35338.824 
 2780000   0.80079974  -0.24277067    2.1961524    35343.374 
 2790000   0.80157161  -0.24550324    2.2071274    35456.424 
 2800000    0.7973302  -0.24159362    2.2012322    35405.491 
 2810000   0.79693508  -0.24480659    2.1946545    35410.248 
 2820000   0.80199022  -0.24171065    2.1985149    35400.111 
 2830000   0.78929891   -0.2302067    2.1895262    35409.426 
 2840000   0.80032627  -0.25124626    2.1962341    35437.444 
 2850000   0.80030301  -0.24323755     2.178924    35289.991 
 2860000   0.80545274  -0.23744896    2.1931418    35298.851 
 2870000   0.79921993   -0.2346215    2.1958195    35401.666 
 2880000   0.79976565  -0.24335498    2.1898755    35361.711 
 2890000   0.79502224  -0.24209479    2.2100778    35531.216 
 2900000   0.80022334  -0.23898837     2.213383    35474.703 
 2910000   0.80382441  -0.24576392    2.1935432    35336.458 
 2920000   0.80135375  -0.23213645    2.2079446    35473.207 
 2930000   0.80186061  -0.23363493    2.2064563    35408.679 
 2940000   0.80411197  -0.24173588     2.204177     35399.51 
 2950000   0.79894262  -0.24324764    2.1896594    35323.446 
 2960000   0.80181273  -0.23714451    2.2028984    35429.993 
 2970000   0.80332154  -0.23486111    2.2161828    35487.009 
 2980000   0.79916821  -0.24412653    2.2135358    35485.307 
 2990000   0.80127897  -0.24336762    2.2126211    35480.499 
 3000000   0.80285217  -0.24796569    2.2026554    35377.599 
 3010000   0.79721193  -0.23533513    2.2015561    35420.534 
 3020000    0.8006869  -0.24758569    2.1935582    35341.704 
 3030000    0.8025852  -0.23605981    2.2159899    35530.439 
 3040000   0.79605733  -0.24513069    2.1958111    35393.027 
 3050000   0.79740423  -0.24184852    2.1985294    35426.343 
 3060000   0.79751607  -0.23287697     2.209993    35479.052 
 3070000   0.80095778  -0.24528022    2.1992927    35408.655 
 3080000   0.80934155  -0.25008564    2.1968531    35284.955 
 3090000   0.79500652  -0.23756806     2.190421    35451.117 
 3100000   0.80446189  -0.24745938    2.1958596     35301.09 
 3110000   0.79369396   -0.2404549    2.1938877    35404.399 
 3120000   0.80193053  -0.23737682    2.2077999    35419.118 
 3130000   0.79661062  -0.23551073    2.2152554    35492.444 
 3140000   0.80280255  -0.24680734    2.2001037    35408.076 
 3150000   0.79976427  -0.23622315    2.2036408    35433.793 
 3160000   0.80025794  -0.23997028    2.2081879    35441.843 
 3170000   0.79807062  -0.25036092    2.1954144    35423.832 
 3180000   0.80454978  -0.23954175     2.210341    35399.098 
 3190000   0.80315308  -0.24389685    2.1944545    35328.058 
 3200000   0.80255211  -0.24092915    2.2048782    35391.813 
 3210000   0.80572435  -0.23605506    2.2052978    35372.448 
 3220000   0.80001323  -0.24227279    2.2035899    35403.493 
 3230000   0.80445283  -0.24278446    2.2167974    35495.069 
 3240000   0.80480379  -0.25187424    2.2053185    35408.629 
 3250000   0.80311944  -0.23947087    2.2238604     35499.74 
 3260000   0.79986022  -0.22884922    2.2085995    35472.178 
 3270000   0.79906575  -0.23905247    2.1935241    35353.898 
 3280000   0.79884693  -0.24682205    2.1880393    35297.139 
 3290000   0.80417268  -0.24895635    2.2163419    35446.928 
 3300000   0.79948103    -0.240515    2.1800787    35287.675 
 3310000   0.79636223  -0.24595565    2.2096876    35452.474 
 3320000   0.79743057  -0.24398994    2.1867691    35316.651 
 3330000   0.79759902  -0.23947266    2.2069337    35447.187 
 3340000   0.79099024  -0.24110016    2.1917712    35422.246 
 3350000    0.7976562  -0.24404064    2.2012683    35428.632 
 3360000   0.79913696  -0.24351419    2.2082019    35436.825 
 3370000   0.80140034  -0.25036002    2.1851701    35365.204 
 3380000   0.79613843  -0.24325309    2.1999209     35499.51 
 3390000   0.80460912  -0.23910001    2.2120503    35502.208 
 3400000   0.80359573   -0.2431928    2.2091121    35444.179 
 3410000   0.80651001  -0.24155799    2.1949852    35348.299 
 3420000   0.80181851  -0.24271581    2.1930294    35351.055 
 3430000   0.79791176   -0.2397505    2.1797416    35304.554 
 3440000   0.80001511  -0.24817105    2.2027203    35438.526 
 3450000   0.80365868  -0.24222295    2.1904357    35333.598 
 3460000   0.79615261   -0.2405911    2.1891109    35383.507 
 3470000   0.80016549  -0.24058643    2.1951428    35396.704 
 3480000   0.79536442  -0.24413837    2.2077176    35459.922 
 3490000   0.79902258  -0.24082322    2.1897386    35364.588 
 3500000   0.79693157  -0.23964074    2.1818936     35388.91 
 3510000   0.80105997  -0.24776796    2.1979966    35386.569 
 3520000   0.80146569  -0.24389816    2.1946498    35338.956 
 3530000   0.79981543  -0.25124098    2.1977815    35428.636 
 3540000   0.80017087    -0.233841     2.203104    35396.123 
 3550000   0.81280296   -0.2525485    2.2221435    35496.299 
 3560000    0.7985919  -0.24073061    2.2038432    35428.998 
 3570000     0.804097  -0.24758174    2.1966067    35345.893 
 3580000   0.79944984  -0.24191265    2.2018761    35438.159 
 3590000   0.80755728  -0.23771256    2.1989314     35380.55 
 3600000   0.79949243  -0.24611946    2.1970689    35375.212 
 3610000   0.80555572  -0.23042715    2.2149307    35422.836 
 3620000   0.80324885  -0.23857678    2.1804609    35288.707 
 3630000    0.8066545  -0.24507038    2.2294825    35533.322 
 3640000   0.80137586  -0.23705491    2.2017093    35409.479 
 3650000   0.79954105  -0.23120303    2.1906576    35371.474 
 3660000   0.79972349  -0.24616814    2.2069569    35420.687 
 3670000   0.80277516  -0.24304575    2.2042777    35362.952 
 3680000   0.79780156  -0.24573307    2.2202113    35593.724 
 3690000    0.8004092  -0.22640858    2.2076911    35497.093 
 3700000    0.7982824  -0.24119953    2.2021249    35454.322 
 3710000   0.80465513  -0.23754285    2.1894925    35308.855 
 3720000    0.8001933   -0.2403812    2.2052302    35370.491 
 3730000   0.79652405  -0.23914384    2.1908751     35445.86 
 3740000   0.79560502  -0.24513567    2.1778942    35353.424 
 3750000   0.80805944  -0.24052825    2.2101695    35417.627 
 3760000    0.7960062  -0.23684834    2.1785566    35367.464 
 3770000   0.80297639  -0.24665632    2.1782558     35244.25 
 3780000   0.80439466  -0.23770982    2.1916645    35279.722 
 3790000   0.79485653  -0.24327348    2.1828049      35340.7 
 3800000   0.80137016  -0.24255618    2.1927274    35377.753 
 3810000   0.80033306  -0.23546991    2.1741435    35303.087 
 3820000   0.79491774  -0.24548372    2.1875457    35390.298 
 3830000   0.79358565  -0.24188139     2.182108    35321.783 
 3840000   0.80883743      -0.2469    2.2106042    35431.256 
 3850000   0.79744913   -0.2447973    2.2010072    35430.624 
 3860000    0.8072002  -0.24359937    2.2032118    35443.702 
 3870000   0.79666391  -0.24886103    2.1795716     35366.89 
 3880000   0.80036487  -0.24253517    2.1958881    35411.744 
 3890000   0.80683454  -0.23475143    2.1943283    35350.463 
 3900000   0.79984621  -0.23954564    2.1917015    35371.292 
 3910000   0.79474866  -0.24059373    2.1739995    35315.509 
 3920000   0.80153144  -0.24300741    2.2080169    35452.514 
 3930000   0.80080901  -0.22998607    2.1945735    35327.845 
 3940000   0.79882489  -0.24134973    2.1804634    35388.189 
 3950000   0.80251402  -0.25273445    2.1993271     35442.52 
 3960000   0.79605379  -0.24062915    2.1821841    35345.023 
 3970000   0.80583018  -0.24163537    2.2244507    35550.301 
 3980000   0.80142155  -0.23570705    2.1877469    35369.062 
 3990000   0.80067287  -0.24879813    2.1940333    35363.367 
 4000000   0.80270723  -0.25054379    2.1976862    35375.297 
 4010000   0.79770987  -0.22899745    2.1903463    35379.057 
 4020000   0.79939485  -0.24812044     2.202199    35410.203 
 4030000    0.7935139  -0.23689793    2.1925817    35460.801 
 4040000   0.79658329  -0.24084888    2.1939861    35449.319 
 4050000   0.80232188  -0.23808419    2.1934136    35354.406 
 4060000   0.80744123  -0.24904985    2.1856755    35241.835 
 4070000   0.79662383  -0.24588397    2.1949461    35393.667 
 4080000   0.79965921  -0.23998584    2.2070095    35440.205 
 4090000   0.79583259  -0.23638938     2.202347    35482.837 
 4100000   0.80987078  -0.24326096    2.1943048    35330.937 
 4110000   0.79486775  -0.24126944     2.182803    35350.431 
 4120000   0.79303778  -0.23625962    2.1736698    35272.293 
 4130000   0.79870426  -0.24658444    2.1816748    35295.641 
 4140000   0.79517228   -0.2445236    2.1849051    35359.503 
 4150000    0.7947109  -0.23006474    2.1969891    35481.671 
 4160000   0.80616379   -0.2425927    2.2046719    35409.809 
 4170000   0.79739038  -0.24138952    2.2059193    35493.891 
 4180000   0.80023881  -0.24600922    2.1824352    35268.629 
 4190000   0.79556671  -0.23505006    2.1627572    35264.351 
 4200000   0.79686501   -0.2418509    2.1914324    35367.663 
 4210000   0.80847875   -0.2511984    2.1971203    35342.503 
 4220000   0.79779635  -0.23957213    2.1866544    35339.867 
 4230000   0.80044407  -0.23308543    2.1848128    35339.613 
 4240000   0.79901708   -0.2330726    2.1711273    35251.229 
 4250000   0.79824071   -0.2490082     2.180066    35338.936 
 4260000    0.7888793  -0.23683832    2.1832129    35404.745 
 4270000   0.79624399  -0.24351767    2.1740644    35336.006 
 4280000   0.79236842  -0.23159522     2.193254    35427.078 
 4290000   0.79359453  -0.23702748    2.1861294    35454.931 
 4300000   0.79921929  -0.24403339    2.1912359    35391.922 
 4310000   0.79843492  -0.24518362     2.178913    35270.351 
 4320000   0.80996466  -0.23772531     2.204875    35380.348 
 4330000   0.79425067  -0.23381949    2.2022406    35459.413 
 4340000    0.8036555  -0.24291958    2.1967226    35449.653 
 4350000   0.79975416  -0.23637887     2.195091    35409.272 
 4360000    0.7954162  -0.23739137      2.17245    35328.876 
 4370000   0.80315954  -0.24205485    2.1920032    35318.254 
 4380000   0.79606675  -0.24807863    2.1639057    35193.559 
 4390000   0.80161841  -0.24073881    2.1756636    35276.752 
 4400000   0.79617371   -0.2391789    2.1745848    35321.104 
 4410000   0.79572172   -0.2328766    2.1627553    35241.163 
 4420000   0.79998633  -0.24333267    2.1819087    35339.265 
 4430000   0.79872012  -0.24207356    2.1853285    35348.781 
 4440000   0.79798313  -0.24113531    2.1763193    35314.743 
 4450000   0.79727426  -0.24465003    2.1732337    35330.836 
 4460000    0.7977966  -0.24035917     2.196729    35367.015 
 4470000     0.796703  -0.24304949    2.1903177    35353.578 
 4480000    0.7974559  -0.22972877    2.1965394    35402.116 
 4490000   0.80503761  -0.23871612    2.2058365    35423.352 
 4500000   0.80521958  -0.23608891    2.1842629    35356.905 
 4510000   0.80676676  -0.24413591     2.209133    35447.395 
 4520000   0.79891066  -0.24481671    2.1980454    35435.909 
 4530000   0.80250775  -0.23748861     2.189103    35369.621 
 4540000   0.81169917  -0.24988013    2.1961129    35342.536 
 4550000   0.80049244  -0.23769245    2.1857463    35337.791 
 4560000   0.80293872   -0.2475663    2.1860604    35318.481 
 4570000   0.79584121  -0.24009436    2.1739875    35303.439 
 4580000   0.80427722  -0.23564244    2.1859506    35327.189 
 4590000   0.79762103  -0.24296278    2.1705994     35295.38 
 4600000   0.79927544  -0.24590558    2.2069488    35471.929 
 4610000   0.80507235  -0.24611078     2.176832    35243.761 
 4620000   0.80112892  -0.24448585    2.1742106    35250.272 
 4630000   0.80087465  -0.23923121    2.1637434    35189.601 
 4640000   0.79389785   -0.2456533    2.1646208    35316.252 
 4650000   0.80058028   -0.2426183     2.190222    35372.542 
 4660000   0.80227955  -0.24810262    2.2020921    35392.188 
 4670000   0.79815641  -0.24249617    2.1849033    35335.288 
 4680000   0.80280924  -0.23452797    2.1874161    35325.624 
 4690000   0.80103695  -0.24115513    2.1831423    35302.234 
 4700000   0.80216812  -0.23904106        2.183    35252.607 
 4710000   0.80300744  -0.24733821    2.1863811    35283.078 
 4720000   0.79846052  -0.24246929    2.1950466    35365.609 
 4730000   0.80662231  -0.24171256    2.1875301    35259.759 
 4740000   0.80468592   -0.2481844    2.1972631    35362.309 
 4750000   0.79840542  -0.24320708    2.1837331    35366.568 
 4760000   0.80122556  -0.24136977    2.1930604    35355.588 
 4770000   0.79643363  -0.23731269    2.1775274    35336.884 
 4780000   0.79917386  -0.24979302     2.167507    35221.732 
 4790000   0.80224626  -0.24536697    2.1969247    35417.407 
 4800000   0.81274932  -0.24717676     2.222267    35392.115 
 4810000   0.80198102  -0.24624897     2.176385    35252.648 
 4820000   0.79662177  -0.23625172    2.1870868    35366.562 
 4830000   0.81079764  -0.23833484    2.1939882    35296.113 
 4840000    0.7977757  -0.24592956    2.1834349    35322.239 
 4850000       0.8001  -0.24222534    2.1711162    35191.867 
 4860000   0.80691948  -0.24263461    2.2001142     35394.26 
 4870000   0.80532921  -0.24320194    2.1949749    35362.143 
 4880000   0.79793736  -0.24004628    2.1941461    35380.474 
 4890000   0.79908345  -0.23746444    2.1868966    35379.419 
 4900000   0.80251165  -0.23778233    2.1775394    35273.439 
 4910000   0.80087203  -0.24013894    2.1892891     35315.42 
 4920000   0.79391233  -0.23802521    2.1848274    35390.575 
 4930000   0.80331157   -0.2599865    2.1594707    35142.311 
 4940000   0.80387738   -0.2337222    2.1894034    35314.603 
 4950000   0.80246769   -0.2357424     2.182214    35373.976 
 4960000   0.79962167  -0.23744038    2.1799243    35311.464 
 4970000   0.80171704  -0.24838697    2.1717139    35284.162 
 4980000   0.79846708  -0.24345853    2.1827222     35355.57 
 4990000   0.79598609  -0.23995066    2.1680104    35269.682 
 5000000   0.79865869  -0.23916838    2.1734733    35305.227 
 5010000   0.79887829  -0.24827188    2.1692347    35262.049 
 5020000   0.79438954  -0.23970343    2.1716534    35353.509 
 5030000   0.79739126  -0.24169899    2.1879698    35406.834 
 5040000   0.79577791  -0.24229797    2.1674532    35275.804 
 5050000   0.80591335   -0.2514478    2.1751823    35228.894 
 5060000   0.80221141  -0.23677708    2.1994382    35402.634 
 5070000   0.79790517  -0.23943024    2.1679706    35263.201 
 5080000   0.79958936  -0.23960559    2.1933039    35431.141 
 5090000   0.80016769   -0.2418765    2.1985662    35423.955 
 5100000   0.80021762  -0.22789346    2.1647085    35233.657 
 5110000   0.79864322  -0.24083302    2.1872606    35336.372 
 5120000   0.79868027  -0.23109098    2.1946678    35399.905 
 5130000   0.80034242     -0.24255    2.1897276    35389.195 
 5140000   0.80401754  -0.24208274    2.1885789     35316.23 
 5150000   0.80213838  -0.24741245    2.1783106    35305.703 
 5160000   0.79560793  -0.24320596    2.1852215     35400.33 
 5170000   0.79515921  -0.24238716    2.1887088      35439.4 
 5180000   0.80761285  -0.24183242    2.1949298    35339.112 
 5190000   0.81025929  -0.24266045    2.1910035     35303.66 
 5200000   0.79653352  -0.23621116    2.1908434    35417.447 
 5210000   0.80572203    -0.238465    2.1909159    35341.294 
 5220000   0.80430253  -0.23576895    2.1997063    35444.931 
 5230000   0.79662794  -0.24654546    2.1863442    35430.349 
 5240000   0.79616097  -0.23680707    2.1804358     35343.63 
 5250000    0.7970882  -0.24817122    2.1786355    35348.533 
 5260000   0.79712005  -0.24568783    2.1732382    35270.119 
 5270000   0.79639907  -0.24533779    2.1801397     35328.16 
 5280000   0.80136243  -0.23804452    2.1938519    35335.464 
 5290000   0.80982427  -0.24501683    2.1985477    35353.225 
 5300000    0.8002849  -0.24549141    2.1913041    35353.265 
 5310000   0.79444851  -0.23907493    2.1855496    35354.877 
 5320000   0.80670817  -0.24384467    2.1922438    35357.155 
 5330000   0.80458133  -0.24053392    2.1951618    35389.585 
 5340000    0.7986669  -0.24220139    2.1835866    35351.072 
 5350000   0.79447237  -0.24049667    2.1821458    35374.764 
 5360000   0.79996072  -0.24254763     2.185259    35383.035 
 5370000   0.79570546  -0.24059255    2.1727725    35320.124 
 5380000    0.7946744  -0.24506922    2.1642845    35291.446 
 5390000   0.79652538   -0.2504887    2.1768511     35302.21 
 5400000   0.80367552  -0.23838711    2.1650512    35214.084 
 5410000   0.80336568  -0.24205335    2.1707556    35178.478 
 5420000   0.80458496  -0.23743412    2.1893538    35362.894 
 5430000   0.79806967  -0.24517903    2.1698386    35248.554 
 5440000   0.80567725  -0.24710678    2.2189309    35510.618 
 5450000   0.79687071  -0.25056982    2.1580045    35204.351 
 5460000    0.8036361  -0.24062351    2.1693467    35233.269 
 5470000   0.80763056  -0.24770317    2.1796488    35262.549 
 5480000   0.79913896  -0.24155784    2.1747029    35282.708 
 5490000   0.80267821  -0.24299988     2.172253    35274.039 
 5500000    0.8019179  -0.24727819    2.1698625    35192.038 
 5510000   0.79591175  -0.23633057    2.1756861    35316.484 
 5520000   0.80253224  -0.25175119    2.1677735    35267.907 
 5530000   0.80047028  -0.24358902    2.1751139    35297.141 
 5540000   0.80060339  -0.24260567    2.1674403      35244.8 
 5550000   0.79988536  -0.24197478    2.1700224    35216.407 
 5560000   0.80066298  -0.23787681    2.1752959    35332.347 
 5570000   0.79286995  -0.24266065    2.1616179    35202.242 
 5580000   0.80411786  -0.24712137    2.1964726     35340.13 
 5590000   0.79638032  -0.22591634    2.1764637    35356.169 
 5600000   0.79987593  -0.23378462    2.1626073    35247.531 
 5610000   0.80071567  -0.23836862    2.1833954    35361.318 
 5620000   0.79585543  -0.23515937    2.1785531     35378.37 
 5630000   0.80296851  -0.24298116    2.1705905    35249.692 
 5640000   0.79932583  -0.24060594    2.2059573     35479.35 
 5650000   0.79456524  -0.22920783    2.1799545    35407.209 
 5660000   0.79618709   -0.2539747    2.1853814    35404.128 
 5670000   0.80156698  -0.25276285    2.1832816    35306.159 
 5680000   0.80555001   -0.2426912    2.1848394    35313.061 
 5690000   0.80051604   -0.2479207    2.1922637    35458.462 
 5700000   0.79594906  -0.24465131    2.1657919    35207.006 
 5710000   0.80393399  -0.24079448    2.1891985    35325.073 
 5720000   0.79774792  -0.24494732    2.1544267    35163.364 
 5730000   0.80213488  -0.24052394    2.1673711    35267.402 
 5740000    0.8029101  -0.24688167    2.1800181    35309.446 
 5750000   0.79954947  -0.24342473     2.179082    35340.931 
 5760000   0.79798755   -0.2440397     2.155894    35234.702 
 5770000   0.79908731  -0.24003633     2.167838    35253.471 
 5780000   0.79880315  -0.24832603    2.1810833    35356.906 
 5790000    0.8067775  -0.24302906    2.1946563    35344.246 
 5800000   0.79279456  -0.23975681    2.1813144    35416.172 
 5810000   0.80415985  -0.23659471    2.1885636    35354.713 
 5820000   0.79996291  -0.23140976    2.1579334    35184.236 
 5830000   0.79665537  -0.23773454    2.1705463    35317.137 
 5840000   0.80035008  -0.24446925    2.1807455    35311.288 
 5850000   0.79721962  -0.24110791    2.1774299    35333.529 
 5860000   0.80446838  -0.24127686    2.2014377    35414.271 
 5870000   0.79766532  -0.24193422    2.1723393    35274.035 
 5880000   0.79671775  -0.24673504    2.1737473     35291.58 
 5890000   0.79081361  -0.24104926    2.1530049    35225.821 
 5900000   0.80374758  -0.25439483    2.1831453    35331.979 
 5910000   0.79805447  -0.24814793      2.17886    35328.533 
 5920000   0.79912762  -0.25074217    2.1724776    35301.774 
 5930000   0.80271854  -0.24029045    2.1814358    35291.585 
 5940000   0.80431562  -0.23465142    2.1907058    35372.829 
 5950000   0.79618295  -0.24656014    2.1513629    35179.995 
 5960000   0.79479536  -0.23678945    2.1750244    35382.577 
 5970000   0.79947002  -0.23483211    2.1768272    35347.099 
 5980000   0.79850562  -0.23164109    2.1686659    35293.536 
 5990000   0.79229516   -0.2460113    2.1698283     35276.54 
 6000000   0.79949492  -0.23780181    2.1894358    35402.728 
 6010000   0.79855416  -0.24903728    2.1773288    35335.292 
 6020000   0.79802453  -0.23636238    2.1692672    35252.808 
 6030000   0.79925262   -0.2389882     2.178075     35341.37 
 6040000   0.79977258  -0.24136826     2.182648    35341.294 
 6050000   0.79524684   -0.2525142    2.1715904    35296.709 
 6060000   0.79659142  -0.24213445    2.1729607    35292.996 
 6070000   0.80252611  -0.24269628    2.1877448    35391.049 
 6080000   0.80635921  -0.23769511    2.1895708    35335.316 
 6090000    0.8022441  -0.24590573    2.1904703     35418.86 
 6100000   0.80012651  -0.23528078    2.1849388    35328.503 
 6110000   0.79808124  -0.24307891    2.1716689     35276.08 
 6120000   0.80561389  -0.23683375    2.1802585    35259.677 
 6130000   0.80016417  -0.24475792    2.1775638    35301.957 
 6140000   0.79257654  -0.24558978    2.1529712     35235.48 
 6150000   0.80720613  -0.24175828    2.1879724    35334.431 
 6160000   0.79429401  -0.23183587    2.1768644    35357.219 
 6170000    0.7914381  -0.23586315    2.1546869    35271.164 
 6180000   0.79552563  -0.23921273    2.1790336     35359.02 
 6190000    0.7995266  -0.23979883    2.1820636    35334.383 
 6200000   0.79564613  -0.23813421    2.1574803    35236.052 
 6210000   0.79259953  -0.24700228    2.1602262    35265.276 
 6220000   0.79932982  -0.23900537     2.166721    35283.834 
 6230000   0.80115757  -0.23736995    2.1989081    35436.405 
 6240000   0.80171864  -0.24290552    2.1749088    35253.572 
 6250000   0.79910791  -0.23895035    2.1717018     35313.53 
 6260000   0.79992498  -0.24104086    2.1708049    35276.807 
 6270000   0.79893287  -0.23943308    2.1664184    35255.992 
 6280000   0.79831958  -0.24605032    2.1737713    35341.679 
 6290000   0.79994363  -0.23770127    2.1726319    35291.996 
 6300000   0.79799007  -0.24357166      2.15954    35256.716 
 6310000   0.80216374  -0.23845494    2.1937322    35381.956 
 6320000    0.7999659  -0.24124898    2.1771178    35298.235 
 6330000   0.80163583  -0.23485456    2.1831828    35341.426 
 6340000    0.8038709  -0.24819218    2.1951725    35403.215 
 6350000   0.79445062  -0.24197443    2.1674948    35330.489 
 6360000   0.80199137  -0.24298072     2.179255    35299.843 
 6370000   0.80384288  -0.24216534    2.1714622    35253.521 
 6380000   0.79431211  -0.24478243    2.1641721    35285.448 
 6390000   0.80127085  -0.23643445    2.1844929    35353.336 
 6400000    0.8030327  -0.24365809    2.1774997    35334.791 
 6410000   0.79287543  -0.23717081    2.1413081    35143.391 
 6420000   0.79699665  -0.23427545     2.174654    35296.128 
 6430000   0.79851565  -0.23692325    2.1759255    35295.664 
 6440000   0.80483562  -0.23997404     2.192962    35426.764 
 6450000   0.79904798  -0.23806413    2.1824106    35407.421 
 6460000   0.80214593  -0.24212172    2.1961189    35431.674 
 6470000   0.79782709  -0.23767408     2.186624    35440.999 
 6480000   0.80480694  -0.24128364    2.1766216    35298.049 
 6490000   0.80124941  -0.24421279    2.1709865    35245.676 
 6500000   0.80806614  -0.23414226      2.18828    35292.248 
 6510000   0.80135587  -0.24631633    2.1856667    35386.097 
 6520000    0.7950032  -0.24297051    2.1620986     35237.21 
 6530000   0.79895449  -0.23586237    2.1736448    35315.382 
 6540000   0.80252807  -0.23564694    2.1751142    35295.435 
 6550000   0.80359793  -0.24529997    2.1827628    35288.141 
 6560000   0.80127695  -0.24282608    2.1656526    35216.474 
 6570000   0.79910017  -0.23821981     2.164991    35241.089 
 6580000   0.80351334  -0.24989544    2.1812008    35307.454 
 6590000   0.79808025  -0.24187329    2.1804916    35329.722 
 6600000   0.79982246  -0.24526556    2.1833379    35391.683 
 6610000   0.80257039  -0.24282097     2.174489    35298.754 
 6620000   0.79458735   -0.2394628    2.1628649    35362.618 
 6630000   0.79722651   -0.2367617      2.18359     35344.82 
 6640000   0.79761521  -0.23880159    2.1986934    35479.266 
 6650000   0.79562709  -0.23488738    2.1772146    35308.584 
 6660000   0.80272157  -0.24588975    2.1813945    35371.437 
 6670000   0.79881463  -0.24394646    2.1574335    35168.743 
 6680000   0.79374948  -0.24463248    2.1758847    35386.509 
 6690000   0.79779737  -0.23792962    2.1851463    35396.094 
 6700000   0.79326035  -0.24569338    2.1772897    35354.379 
 6710000   0.79948117  -0.23989546    2.1720265    35355.157 
 6720000   0.80001226  -0.23357773    2.1662266    35331.115 
 6730000   0.80116615  -0.25032179    2.1626163    35209.028 
 6740000   0.80014133  -0.23069921    2.1948336    35417.041 
 6750000   0.80179007  -0.23883518    2.1916511    35411.349 
 6760000   0.79828365  -0.23958321    2.1660446    35276.738 
 6770000   0.80194768  -0.24409619    2.1846148    35354.877 
 6780000   0.79364845  -0.24170564    2.1522612    35249.563 
 6790000   0.79217494  -0.24266013    2.1533281    35277.449 
 6800000   0.80685657  -0.23650294    2.1807192    35281.101 
 6810000   0.80471512  -0.24040439    2.1890983    35326.221 
 6820000   0.80333659   -0.2407064    2.1888551    35384.683 
 6830000   0.80409057  -0.24349227     2.187726    35330.763 
 6840000   0.79466209   -0.2431199    2.1690348    35325.445 
 6850000   0.79421332  -0.24852357    2.1657864    35309.107 
 6860000   0.79707095  -0.24640844    2.1749644    35374.055 
 6870000   0.80195235  -0.24356398    2.1863795    35369.189 
 6880000   0.79850133  -0.23971854    2.1791217    35353.244 
 6890000   0.80175288   -0.2474423    2.1775477    35355.576 
 6900000    0.7975204  -0.24021945    2.1728394    35301.567 
 6910000   0.79607506   -0.2470523    2.1625591    35306.535 
 6920000    0.8050048  -0.22996336    2.1773913    35312.637 
 6930000   0.80242321  -0.25017535    2.1698679    35250.152 
 6940000   0.80210063  -0.23245202    2.1719184    35292.702 
 6950000   0.80601791  -0.23602949    2.1964571      35425.5 
 6960000   0.80042532   -0.2511106    2.1718411    35312.993 
 6970000   0.80480048  -0.24550608    2.1806903    35324.292 
 6980000   0.80134703  -0.24527569    2.1747547     35346.52 
 6990000    0.8026211  -0.23593253    2.1919524    35414.694 
 7000000   0.80176698  -0.23571921    2.1844711    35416.424 
Loop time of 4424.36 on 216 procs for 5000000 steps with 28900 atoms

Performance: 488206.636 tau/day, 1130.108 timesteps/s
99.9% CPU use with 216 MPI tasks x 1 OpenMP threads

MPI task timing breakdown:
Section |  min time  |  avg time  |  max time  |%varavg| %total
---------------------------------------------------------------
Pair    | 427.79     | 484.56     | 609.13     | 123.4 | 10.95
Bond    | 8.1204     | 9.4942     | 11.342     |  18.7 |  0.21
Neigh   | 668.62     | 702.31     | 734.85     |  51.6 | 15.87
Comm    | 945.34     | 1088.7     | 1217.5     | 167.6 | 24.61
Output  | 2.0055     | 2.0105     | 2.0485     |   0.2 |  0.05
Modify  | 1758.9     | 1902       | 2042.3     | 111.1 | 42.99
Other   |            | 235.3      |            |       |  5.32

Nlocal:    133.796 ave 236 max 109 min
Histogram: 40 112 34 10 7 6 2 3 0 2
Nghost:    974.319 ave 1251 max 866 min
Histogram: 24 63 52 29 21 10 8 5 2 2
Neighs:    4866.44 ave 11391 max 3423 min
Histogram: 65 94 30 9 6 5 3 0 3 1

Total # of neighbors = 1051150
Ave neighs/atom = 36.372
Ave special neighs/atom = 0.602076
Neighbor list builds = 693509
Dangerous builds = 26
System init for write_restart ...
Setting atom values ...
  3000 settings made for charge
Setting atom values ...
  3000 settings made for charge
Setting atom values ...
  1900 settings made for charge
Setting atom values ...
  1900 settings made for charge
System init for write_data ...
PPPM initialization ...
  using 12-bit tables for long-range coulomb (src/kspace.cpp:332)
  G vector (1/distance) = 1.16623
  grid = 96 96 96
  stencil order = 5
  estimated absolute RMS force accuracy = 0.000109911
  estimated relative force accuracy = 0.000109911
  using double precision FFTW3
  3d grid and FFT values/proc = 9261 4608
WARNING: Neighbor exclusions used with KSpace solver may give inconsistent Coulombic energies (src/neighbor.cpp:486)
Neighbor list info ...
  update every 1 steps, delay 0 steps, check yes
  max neighbors/atom: 2000, page size: 100000
  master list distance cutoff = 2.8
  ghost atom cutoff = 2.8
  binsize = 1.4, bins = 24 24 24
  2 neighbor lists, perpetual/occasional/extra = 2 0 0
  (1) pair lj/cut, perpetual
      attributes: half, newton on
      pair build: half/bin/newton
      stencil: half/bin/3d/newton
      bin: standard
  (2) pair coul/long, perpetual, skip from (1)
      attributes: half, newton on
      pair build: skip
      stencil: none
      bin: none
PPPM initialization ...
  using 12-bit tables for long-range coulomb (src/kspace.cpp:332)
  G vector (1/distance) = 1.16623
  grid = 96 96 96
  stencil order = 5
  estimated absolute RMS force accuracy = 0.000109911
  estimated relative force accuracy = 0.000109911
  using double precision FFTW3
  3d grid and FFT values/proc = 9261 4608
WARNING: Neighbor exclusions used with KSpace solver may give inconsistent Coulombic energies (src/neighbor.cpp:486)
Neighbor list info ...
  update every 1 steps, delay 0 steps, check yes
  max neighbors/atom: 2000, page size: 100000
  master list distance cutoff = 2.8
  ghost atom cutoff = 2.8
  binsize = 1.4, bins = 24 24 24
  2 neighbor lists, perpetual/occasional/extra = 2 0 0
  (1) pair lj/cut, perpetual
      attributes: half, newton on
      pair build: half/bin/newton
      stencil: half/bin/3d/newton
      bin: standard
  (2) pair coul/long, perpetual, skip from (1)
      attributes: half, newton on
      pair build: skip
      stencil: none
      bin: none
Setting up Verlet run ...
  Unit style    : lj
  Current step  : 7000000
  Time step     : 0.005
Per MPI rank memory allocation (min/avg/max) = 14.96 | 16.35 | 16.96 Mbytes
Step Temp Press TotEng Volume 
 7000000   0.80176698  -0.36558539     3.384228    35416.424 
 7010000   0.79969857  -0.23937511    2.6575376    35416.424 
 7020000   0.80374416  -0.31309123    2.6329308    35416.424 
 7030000   0.80088491  -0.28270094    2.6192212    35416.424 
 7040000   0.79635345   -0.2402599    2.6123547    35416.424 
 7050000   0.80262112  -0.30580906     2.620613    35416.424 
 7060000   0.80041185  -0.29147314    2.6043722    35416.424 
 7070000   0.79479545  -0.37564283    2.5967069    35416.424 
 7080000   0.79990585  -0.30623402    2.6172647    35416.424 
 7090000   0.80771478  -0.29269805    2.6194929    35416.424 
 7100000   0.79228663  -0.22393372    2.6024612    35416.424 
 7110000   0.79813186  -0.28244984    2.6078601    35416.424 
 7120000   0.79840772  -0.28513371     2.604993    35416.424 
 7130000   0.80195558  -0.29396288    2.6088691    35416.424 
 7140000   0.79810483  -0.26173278    2.5992174    35416.424 
 7150000   0.80441031  -0.26722378    2.6171128    35416.424 
 7160000    0.7985971  -0.25449396    2.6011153    35416.424 
 7170000   0.79124532  -0.25031725    2.5874367    35416.424 
 7180000   0.80095521   -0.2894757    2.6040806    35416.424 
 7190000   0.80004593  -0.25976583     2.606298    35416.424 
 7200000   0.80584253  -0.25035095    2.6076678    35416.424 
 7210000   0.80080467  -0.27133678    2.5980589    35416.424 
 7220000    0.7976157  -0.27892758    2.6011143    35416.424 
 7230000   0.80175408  -0.23636814     2.605568    35416.424 
 7240000   0.79829996  -0.29336895    2.5937325    35416.424 
 7250000   0.80658303  -0.33281894    2.6060392    35416.424 
 7260000   0.79618648  -0.30562336    2.5904487    35416.424 
 7270000   0.79834302  -0.23951049    2.6076421    35416.424 
 7280000   0.79702793  -0.34221142    2.5894654    35416.424 
 7290000   0.80080658   -0.2643695    2.6000937    35416.424 
 7300000   0.80008678   -0.2361589     2.599322    35416.424 
 7310000   0.80949457  -0.27731996    2.6127035    35416.424 
 7320000   0.79830125  -0.26368549    2.5950242    35416.424 
 7330000   0.79958249  -0.26565548    2.6016903    35416.424 
 7340000   0.79811855  -0.26774639    2.5928751    35416.424 
 7350000    0.8014815  -0.31565649    2.5963991    35416.424 
 7360000   0.80190669  -0.24459692    2.5942389    35416.424 
 7370000    0.8070057  -0.26781228    2.6114451    35416.424 
 7380000   0.79724201   -0.3204987    2.5899608    35416.424 
 7390000   0.79779403  -0.30853553      2.59074    35416.424 
 7400000   0.79710915  -0.31716023    2.5922309    35416.424 
 7410000   0.80116818  -0.28706278    2.6013482    35416.424 
 7420000   0.80617071  -0.22139974     2.608001    35416.424 
 7430000   0.80000237  -0.32278322    2.5880853    35416.424 
 7440000   0.79680585  -0.25485163    2.5959642    35416.424 
 7450000   0.79816173   -0.2846592    2.5871644    35416.424 
 7460000   0.79683512  -0.26658482    2.5882826    35416.424 
 7470000   0.79887091  -0.28851748    2.5938745    35416.424 
 7480000    0.7992097  -0.28768588    2.5909737    35416.424 
 7490000   0.79733136  -0.26014997    2.5962858    35416.424 
 7500000   0.79502557   -0.2445414    2.5933074    35416.424 
 7510000   0.79992389  -0.29494071     2.594474    35416.424 
 7520000   0.79953609  -0.35185359    2.5868409    35416.424 
 7530000   0.80414976  -0.24179475    2.6050111    35416.424 
 7540000   0.79934448   -0.3415143    2.5799688    35416.424 
 7550000   0.79790938  -0.26718621    2.5958224    35416.424 
 7560000   0.80826301  -0.26926271    2.6014572    35416.424 
 7570000   0.79540325  -0.32549585    2.5913046    35416.424 
 7580000   0.79888536  -0.34192004    2.5921643    35416.424 
 7590000   0.79254322  -0.31216511    2.5835525    35416.424 
 7600000    0.8056238   -0.2810433    2.6063589    35416.424 
 7610000   0.79659227    -0.260821    2.5915962    35416.424 
 7620000   0.79439836  -0.23348259    2.5857224    35416.424 
 7630000   0.79960663  -0.25706933    2.5962669    35416.424 
 7640000   0.80496102  -0.30572771    2.6037528    35416.424 
 7650000   0.79632344  -0.25533009    2.5795932    35416.424 
 7660000   0.79998688  -0.23126764     2.588913    35416.424 
 7670000   0.80184083  -0.24757938    2.5979482    35416.424 
 7680000   0.80216878   -0.2892721    2.5912859    35416.424 
 7690000   0.80429908  -0.30926223    2.5934328    35416.424 
 7700000    0.8089758  -0.28376803    2.6071111    35416.424 
 7710000    0.7963456  -0.24746561    2.5860814    35416.424 
 7720000   0.80891522  -0.30518035    2.6062659    35416.424 
 7730000   0.79857058   -0.2883943    2.5901293    35416.424 
 7740000   0.80451468  -0.33379362    2.5840954    35416.424 
 7750000   0.79761475  -0.26603255    2.5867285    35416.424 
 7760000   0.80441797  -0.23848893    2.6008593    35416.424 
 7770000   0.79983288  -0.26927907     2.592915    35416.424 
 7780000   0.79519167  -0.25142985    2.5927399    35416.424 
 7790000   0.79580037  -0.36882359    2.5831426    35416.424 
 7800000   0.79546559  -0.24244792    2.5922145    35416.424 
 7810000   0.79844139   -0.2532774    2.5906754    35416.424 
 7820000   0.79917204  -0.22491117     2.602584    35416.424 
 7830000   0.79944148  -0.28832307    2.5952142    35416.424 
 7840000   0.80416521  -0.29017291    2.5991628    35416.424 
 7850000   0.80850566  -0.19580883    2.6076471    35416.424 
 7860000   0.79778295  -0.29132036    2.5897015    35416.424 
 7870000   0.79979414  -0.28021688    2.5899526    35416.424 
 7880000   0.80063485  -0.28256724    2.5895013    35416.424 
 7890000   0.80789962  -0.25350535     2.600556    35416.424 
 7900000   0.80018579  -0.32976353    2.5935211    35416.424 
 7910000   0.80054808  -0.32824471    2.5960509    35416.424 
 7920000   0.80241829  -0.38214806    2.5933588    35416.424 
 7930000    0.8001506  -0.30347106    2.5937172    35416.424 
 7940000   0.80760901   -0.2745828    2.6029924    35416.424 
 7950000   0.79280357  -0.28655965    2.5815197    35416.424 
 7960000   0.80152086  -0.28439706    2.5871604    35416.424 
 7970000   0.79607627  -0.29938174    2.5891702    35416.424 
 7980000   0.80256914   -0.2365923    2.5936294    35416.424 
 7990000    0.7975919  -0.20987746    2.5867031    35416.424 
 8000000   0.79376911  -0.31698903    2.5853508    35416.424 
 8010000   0.80369873  -0.32671619    2.5922427    35416.424 
 8020000   0.79776647  -0.32359305    2.5822583    35416.424 
 8030000   0.79440103  -0.30444437     2.574438    35416.424 
 8040000   0.79895046  -0.32969799    2.5912517    35416.424 
 8050000   0.79961063  -0.29368785    2.5905495    35416.424 
 8060000   0.79773511  -0.35446103    2.5768531    35416.424 
 8070000   0.80084604  -0.25157604    2.6006211    35416.424 
 8080000   0.79335754  -0.38377052    2.5738209    35416.424 
 8090000   0.80119131  -0.29909636    2.5893229    35416.424 
 8100000   0.79604411  -0.24697057    2.5842899    35416.424 
 8110000   0.79501909  -0.27060668    2.5875398    35416.424 
 8120000   0.79185028  -0.27783539    2.5756841    35416.424 
 8130000   0.80188736  -0.25508322    2.5962942    35416.424 
 8140000   0.79920447  -0.29552403    2.5871943    35416.424 
 8150000   0.80084822  -0.23877429    2.6006325    35416.424 
 8160000   0.80169294  -0.27598828    2.6017442    35416.424 
 8170000   0.80164049  -0.21886796    2.5936265    35416.424 
 8180000   0.80255635  -0.31981467    2.5882383    35416.424 
 8190000   0.80732589  -0.29511456    2.5954144    35416.424 
 8200000   0.80748078   -0.2668859    2.5999134    35416.424 
 8210000   0.79911083  -0.31818433     2.593054    35416.424 
 8220000   0.80267834   -0.3571689    2.5809911    35416.424 
 8230000   0.80608483  -0.25957798    2.5925641    35416.424 
 8240000   0.80628781  -0.33282114    2.5908345    35416.424 
 8250000   0.80256644  -0.29721202    2.5876679    35416.424 
 8260000   0.79441871  -0.31646517     2.579789    35416.424 
 8270000   0.80690165  -0.30789702    2.5942511    35416.424 
 8280000   0.79728774  -0.29944925    2.5781673    35416.424 
 8290000   0.79867021  -0.30119183    2.5784895    35416.424 
 8300000   0.80160695  -0.26106533    2.5932992    35416.424 
 8310000   0.80530323  -0.32809181    2.5890828    35416.424 
 8320000   0.79910492  -0.23423915    2.5932505    35416.424 
 8330000   0.80010997  -0.25857795     2.583067    35416.424 
 8340000   0.79802593  -0.26323261    2.5815725    35416.424 
 8350000   0.79969863  -0.25893324    2.5900368    35416.424 
 8360000   0.79715713  -0.24105085    2.5853343    35416.424 
 8370000   0.79860869  -0.26240897    2.5872276    35416.424 
 8380000   0.79726475  -0.30747877    2.5803136    35416.424 
 8390000   0.79855919  -0.25011693    2.5821169    35416.424 
 8400000   0.80437875  -0.27588361    2.5993018    35416.424 
 8410000   0.79493327   -0.2300204    2.5789321    35416.424 
 8420000    0.8060469  -0.26170745    2.5890877    35416.424 
 8430000   0.79473813  -0.29995238    2.5806931    35416.424 
 8440000   0.80028322  -0.23139873    2.5939389    35416.424 
 8450000   0.80250882  -0.25016913    2.5898708    35416.424 
 8460000   0.80355601  -0.32006465    2.5858384    35416.424 
 8470000   0.80122782  -0.32504221    2.5866427    35416.424 
 8480000   0.79585634  -0.31679571    2.5830415    35416.424 
 8490000   0.79652021   -0.2907099    2.5813526    35416.424 
 8500000   0.80103912  -0.23483864    2.5933022    35416.424 
 8510000   0.79809899  -0.30260158    2.5748039    35416.424 
 8520000   0.80274588  -0.29657713    2.5834564    35416.424 
 8530000   0.79867569  -0.25016244    2.5799059    35416.424 
 8540000   0.79586365   -0.3095546    2.5765633    35416.424 
 8550000   0.79368434  -0.30045495    2.5658289    35416.424 
 8560000   0.79976515  -0.25620296    2.5918753    35416.424 
 8570000   0.79979938  -0.32586939    2.5833926    35416.424 
 8580000   0.79637068  -0.25458632     2.581583    35416.424 
 8590000   0.80076462  -0.25228403    2.5858874    35416.424 
 8600000    0.8006344  -0.19898229    2.5865499    35416.424 
 8610000   0.80126551  -0.26176555    2.5897158    35416.424 
 8620000   0.80784345  -0.29526802    2.5901391    35416.424 
 8630000   0.80268375  -0.32025415     2.587581    35416.424 
 8640000   0.80275312  -0.32720255    2.5835909    35416.424 
 8650000   0.79868904  -0.29130617    2.5852375    35416.424 
 8660000    0.7984823  -0.31849446    2.5750901    35416.424 
 8670000   0.80252376  -0.30405464    2.5901851    35416.424 
 8680000   0.79848734  -0.26644891    2.5848004    35416.424 
 8690000   0.80585551   -0.2367188    2.5988735    35416.424 
 8700000   0.79899924  -0.25671511    2.5926515    35416.424 
 8710000   0.79919443  -0.30680761    2.5690544    35416.424 
 8720000   0.79892656  -0.33147845    2.5774907    35416.424 
 8730000   0.79669407  -0.27442053    2.5883604    35416.424 
 8740000   0.79799573  -0.31054314    2.5789747    35416.424 
 8750000    0.8128567  -0.27941308    2.6036844    35416.424 
 8760000   0.79315517  -0.31501453    2.5795833    35416.424 
 8770000   0.80321286  -0.31477892    2.5980426    35416.424 
 8780000   0.80404411  -0.30285578    2.5920065    35416.424 
 8790000   0.80115452  -0.31445311    2.5802428    35416.424 
 8800000   0.80167863  -0.30071375    2.5915911    35416.424 
 8810000   0.79834378  -0.30660184    2.5786814    35416.424 
 8820000   0.79682416  -0.21012178    2.5755642    35416.424 
 8830000   0.79928261  -0.27785414    2.5843701    35416.424 
 8840000   0.80922651  -0.26156348    2.6031903    35416.424 
 8850000   0.80502323  -0.29548876    2.5921018    35416.424 
 8860000   0.80191011  -0.29954817    2.5907847    35416.424 
 8870000   0.79923272  -0.31422304    2.5778639    35416.424 
 8880000   0.79587767  -0.32359352    2.5798398    35416.424 
 8890000   0.80529968  -0.26792726    2.5957257    35416.424 
 8900000   0.80562173  -0.28027452    2.5918059    35416.424 
 8910000   0.79817883  -0.27225316    2.5872448    35416.424 
 8920000   0.80514575  -0.25080987    2.5992389    35416.424 
 8930000   0.80204089  -0.30795716    2.5787748    35416.424 
 8940000   0.79836232  -0.30186222    2.5835329    35416.424 
 8950000   0.79311037  -0.29447921     2.570553    35416.424 
 8960000   0.80563299  -0.25553431    2.5946386    35416.424 
 8970000   0.79876335   -0.2693775    2.5883055    35416.424 
 8980000    0.7851621  -0.32004164    2.5574257    35416.424 
 8990000   0.80313063  -0.20512087    2.5979493    35416.424 
 9000000   0.79811032  -0.30310343    2.5825273    35416.424 
 9010000   0.80200842  -0.27297613    2.5914377    35416.424 
 9020000   0.79942261  -0.27394646    2.5855032    35416.424 
 9030000   0.79971878  -0.25275759    2.5829619    35416.424 
 9040000   0.79822864  -0.20391606    2.5879224    35416.424 
 9050000   0.79463801  -0.31239011    2.5775951    35416.424 
 9060000   0.79874248  -0.32699649    2.5824284    35416.424 
 9070000   0.80239681  -0.24462262    2.5896471    35416.424 
 9080000   0.80319346  -0.25726212    2.5959747    35416.424 
 9090000   0.79756097  -0.33752021    2.5777378    35416.424 
 9100000     0.799544  -0.26548724    2.5857422    35416.424 
 9110000   0.80198813  -0.30188594    2.5917958    35416.424 
 9120000   0.79459807   -0.2828087    2.5724763    35416.424 
 9130000   0.79513959  -0.28289621    2.5783724    35416.424 
 9140000   0.79567545  -0.27845043    2.5793513    35416.424 
 9150000   0.79225801  -0.30837091    2.5828961    35416.424 
 9160000   0.80783302  -0.31518609    2.5902419    35416.424 
 9170000   0.80183438  -0.32051802    2.5838852    35416.424 
 9180000   0.79805186  -0.32734373    2.5709028    35416.424 
 9190000   0.80781666  -0.21959798    2.5968203    35416.424 
 9200000    0.8027769  -0.30782921    2.5970999    35416.424 
 9210000   0.80387351  -0.28124879    2.5813601    35416.424 
 9220000    0.7938996  -0.26525431    2.5685586    35416.424 
 9230000    0.8054143  -0.38671462    2.5881048    35416.424 
 9240000   0.79871942  -0.28623079     2.590089    35416.424 
 9250000   0.79530177  -0.26938616    2.5847589    35416.424 
 9260000   0.79900041  -0.24211783    2.5875325    35416.424 
 9270000   0.79935813  -0.33687403    2.5759937    35416.424 
 9280000    0.7941013  -0.25296959    2.5788658    35416.424 
 9290000   0.79778853  -0.25934187    2.5853806    35416.424 
 9300000    0.7990985   -0.2694083    2.5834864    35416.424 
 9310000   0.79924496  -0.31837513    2.5791305    35416.424 
 9320000   0.79822464  -0.28903424     2.581504    35416.424 
 9330000   0.79425709  -0.23668432    2.5797996    35416.424 
 9340000    0.8003785  -0.32892763    2.5834305    35416.424 
 9350000   0.80729407  -0.31297353     2.586273    35416.424 
 9360000    0.8039599   -0.2377534    2.5932909    35416.424 
 9370000   0.80348137   -0.3266422    2.5929115    35416.424 
 9380000   0.79535574  -0.24411343    2.5810337    35416.424 
 9390000   0.80329715   -0.2702594    2.5971374    35416.424 
 9400000    0.7965954   -0.1616659    2.5870915    35416.424 
 9410000   0.80080547  -0.25579216    2.5927581    35416.424 
 9420000   0.79819937  -0.29448426    2.5831478    35416.424 
 9430000   0.79960279  -0.29561486    2.5836551    35416.424 
 9440000   0.79243598  -0.23270641    2.5799759    35416.424 
 9450000   0.79914756  -0.32194908    2.5808327    35416.424 
 9460000   0.79898432  -0.32507371    2.5858738    35416.424 
 9470000   0.80984661  -0.28693679     2.596448    35416.424 
 9480000   0.79541023  -0.26392051     2.572576    35416.424 
 9490000   0.80454877  -0.30295467    2.5889795    35416.424 
 9500000    0.7996424  -0.24141562    2.5896972    35416.424 
 9510000   0.80638898  -0.25148039     2.603782    35416.424 
 9520000   0.79207608  -0.24197208     2.564257    35416.424 
 9530000   0.79647052   -0.3151311    2.5745081    35416.424 
 9540000     0.805305  -0.28375329    2.5940106    35416.424 
 9550000   0.79735194  -0.28988454    2.5889425    35416.424 
 9560000   0.79872828  -0.32487143    2.5796714    35416.424 
 9570000   0.79304434  -0.27615467    2.5766872    35416.424 
 9580000    0.8026158  -0.28021354    2.5847877    35416.424 
 9590000   0.79725208  -0.34765534    2.5762205    35416.424 
 9600000   0.79709877  -0.32094526    2.5711482    35416.424 
 9610000   0.79458524   -0.2026579    2.5749411    35416.424 
 9620000   0.80080034  -0.30045351    2.5750909    35416.424 
 9630000   0.80208446    -0.290543     2.579095    35416.424 
 9640000   0.80450028  -0.26339076    2.5943765    35416.424 
 9650000   0.79461928  -0.31387309    2.5695394    35416.424 
 9660000   0.79922898   -0.2632172    2.5846294    35416.424 
 9670000   0.80170143  -0.28216692    2.5927188    35416.424 
 9680000   0.80063371  -0.25472875    2.5895187    35416.424 
 9690000   0.80123277  -0.26455518    2.5850376    35416.424 
 9700000   0.79897157  -0.29117774    2.5800091    35416.424 
 9710000   0.79883004  -0.31948673    2.5768392    35416.424 
 9720000   0.79337955  -0.34019469    2.5713167    35416.424 
 9730000    0.7972098  -0.26136092    2.5663672    35416.424 
 9740000   0.79912602  -0.23765668    2.5935125    35416.424 
 9750000    0.8016522   -0.2702801    2.5832006    35416.424 
 9760000   0.79735031  -0.32920492    2.5819623    35416.424 
 9770000   0.80078868  -0.32831705    2.5883164    35416.424 
 9780000   0.79486404  -0.27057827    2.5723954    35416.424 
 9790000   0.79924148  -0.26315979    2.5814679    35416.424 
 9800000   0.79886125  -0.32032256    2.5758867    35416.424 
 9810000   0.79740631  -0.25926802    2.5781186    35416.424 
 9820000   0.79931968  -0.23075908    2.5886251    35416.424 
 9830000   0.80366804  -0.33344557    2.5787757    35416.424 
 9840000   0.80109141  -0.32523665    2.5869518    35416.424 
 9850000   0.80048877  -0.35372946    2.5735843    35416.424 
 9860000   0.80214608  -0.26783938     2.588295    35416.424 
 9870000   0.80263763  -0.27491102    2.5812989    35416.424 
 9880000   0.79796341  -0.29969552    2.5797387    35416.424 
 9890000   0.79933136  -0.26525798    2.5829251    35416.424 
 9900000   0.80369989  -0.23029341    2.5858038    35416.424 
 9910000   0.79685346  -0.31800933    2.5790042    35416.424 
 9920000   0.80074838  -0.33940754    2.5723992    35416.424 
 9930000   0.79914461  -0.29389517     2.578391    35416.424 
 9940000    0.8086895  -0.31429551    2.5849953    35416.424 
 9950000   0.79857432  -0.18545641     2.589294    35416.424 
 9960000   0.79310662  -0.31091159    2.5770668    35416.424 
 9970000   0.80261689   -0.3005493     2.587886    35416.424 
 9980000   0.80348678  -0.22952184    2.5870594    35416.424 
 9990000   0.80207775  -0.28269943    2.5888214    35416.424 
10000000   0.79926452  -0.30953666    2.5824251    35416.424 
10010000   0.79723732  -0.27340164    2.5756617    35416.424 
10020000   0.79645618  -0.28889184    2.5787088    35416.424 
10030000   0.80265948  -0.28702395    2.5904512    35416.424 
10040000     0.799579  -0.28332914     2.594186    35416.424 
10050000   0.79412465  -0.31006369    2.5746244    35416.424 
10060000    0.7980786   -0.2491878    2.5834619    35416.424 
10070000   0.79865603  -0.24705619    2.5870896    35416.424 
10080000   0.79829594  -0.28048016    2.5772953    35416.424 
10090000   0.79822039  -0.27037316    2.5768713    35416.424 
10100000   0.79954025   -0.2162217    2.5883827    35416.424 
10110000   0.80654006  -0.30683644    2.5945187    35416.424 
10120000   0.79829958  -0.29014202    2.5749975    35416.424 
10130000   0.79977345   -0.2669732    2.5849845    35416.424 
10140000   0.80644916  -0.27234444    2.5850057    35416.424 
10150000   0.80020222  -0.26701599    2.5829955    35416.424 
10160000   0.80406607   -0.3460822    2.5837957    35416.424 
10170000   0.80512915  -0.28841718    2.5841982    35416.424 
10180000   0.79783602  -0.35399684    2.5829015    35416.424 
10190000   0.80458346  -0.33843676    2.5884255    35416.424 
10200000   0.80516155  -0.28662294    2.5857894    35416.424 
10210000   0.79917149  -0.33163246    2.5755654    35416.424 
10220000   0.79758104  -0.34495894    2.5708968    35416.424 
10230000    0.7994839  -0.31602602    2.5719532    35416.424 
10240000   0.80325623  -0.23025047    2.5926432    35416.424 
10250000   0.80134072  -0.32186817    2.5855219    35416.424 
10260000   0.80172335  -0.27154811    2.5844383    35416.424 
10270000   0.80438843  -0.25048198    2.5926451    35416.424 
10280000   0.79209665   -0.2807004    2.5742047    35416.424 
10290000   0.79526293  -0.32929852    2.5676784    35416.424 
10300000    0.8046753  -0.29250949    2.5886022    35416.424 
10310000   0.80680669  -0.35350648    2.5829413    35416.424 
10320000   0.80715914  -0.28410781    2.5939524    35416.424 
10330000   0.79703909  -0.27743972    2.5816251    35416.424 
10340000   0.79639938  -0.26736413     2.582738    35416.424 
10350000   0.80412705  -0.28644415    2.5865091    35416.424 
10360000   0.79239324  -0.27947397    2.5786448    35416.424 
10370000   0.79255009  -0.34004741    2.5648649    35416.424 
10380000   0.80199244  -0.28663451    2.5892183    35416.424 
10390000   0.79795973  -0.28741402    2.5783408    35416.424 
10400000   0.79928945  -0.33192329    2.5779473    35416.424 
10410000   0.79741268  -0.28559797    2.5892421    35416.424 
10420000   0.80128566  -0.30475602    2.5906873    35416.424 
10430000   0.79850217  -0.27139866    2.5847482    35416.424 
10440000   0.79865985  -0.21221641    2.5836169    35416.424 
10450000   0.79480771  -0.28202031    2.5748057    35416.424 
10460000   0.80552027  -0.32602021    2.5888925    35416.424 
10470000   0.80355261  -0.33705267    2.5817995    35416.424 
10480000    0.7954125  -0.27211299    2.5773444    35416.424 
10490000    0.7933169  -0.27904215    2.5808329    35416.424 
10500000   0.79768405  -0.27145583    2.5686411    35416.424 
10510000   0.79662031  -0.30184488    2.5747468    35416.424 
10520000   0.79996344  -0.25901427     2.581836    35416.424 
10530000   0.80010974  -0.24413521    2.5931659    35416.424 
10540000   0.80146878  -0.26659354    2.5904624    35416.424 
10550000   0.79274847  -0.28736218    2.5712512    35416.424 
10560000   0.80584533  -0.31206238    2.5912214    35416.424 
10570000    0.7994379  -0.28334191    2.5847591    35416.424 
10580000   0.80016986  -0.26320477    2.5838618    35416.424 
10590000   0.79769248  -0.26324562    2.5846891    35416.424 
10600000   0.80193697  -0.30254954     2.593727    35416.424 
10610000   0.79995236  -0.27628374    2.5745812    35416.424 
10620000   0.80416904  -0.29213326    2.5879762    35416.424 
10630000   0.79934066   -0.3466347    2.5787478    35416.424 
10640000   0.79994113  -0.26432916    2.5846638    35416.424 
10650000   0.79878237  -0.19734619    2.5876055    35416.424 
10660000   0.79825138  -0.28041689    2.5751669    35416.424 
10670000    0.7970526  -0.29136081    2.5727957    35416.424 
10680000   0.79849353  -0.26062251    2.5831496    35416.424 
10690000    0.8049412  -0.25055407    2.5886355    35416.424 
10700000   0.80582173  -0.28228237    2.5882228    35416.424 
10710000   0.80561685  -0.25230166    2.5892828    35416.424 
10720000   0.80016846  -0.29459303    2.5810072    35416.424 
10730000   0.80351597  -0.30206233    2.5878806    35416.424 
10740000   0.79382846  -0.29888348     2.581922    35416.424 
10750000   0.80114993  -0.31981288    2.5829128    35416.424 
10760000   0.79842083  -0.29665826    2.5913769    35416.424 
10770000   0.80261777  -0.28353626    2.5863824    35416.424 
10780000   0.80221181  -0.31546692     2.579106    35416.424 
10790000   0.80482203  -0.23925469    2.5958888    35416.424 
10800000   0.79743279  -0.31817255    2.5788516    35416.424 
10810000    0.7948962  -0.34252563    2.5699394    35416.424 
10820000   0.79941019  -0.32151602     2.587241    35416.424 
10830000    0.7997985   -0.2639789    2.5833297    35416.424 
10840000   0.80527262  -0.37112234    2.5854396    35416.424 
10850000   0.80513754  -0.33946462    2.5936456    35416.424 
10860000   0.79833113  -0.25991238    2.5802188    35416.424 
10870000   0.80294502  -0.26934408    2.5802332    35416.424 
10880000   0.80774549  -0.31751714    2.5984113    35416.424 
10890000   0.80106024    -0.290439    2.5814348    35416.424 
10900000   0.79190395  -0.33732937    2.5721937    35416.424 
10910000   0.80161041  -0.27660159    2.5872442    35416.424 
10920000   0.80169949  -0.30198468    2.5889164    35416.424 
10930000    0.7938073  -0.29083321    2.5717918    35416.424 
10940000   0.80410734  -0.25324107    2.5913849    35416.424 
10950000    0.7965921   -0.3008823    2.5838318    35416.424 
10960000   0.80483852  -0.32767379    2.5892849    35416.424 
10970000   0.79855672  -0.30628212    2.5752446    35416.424 
10980000   0.79569614  -0.28695288    2.5786649    35416.424 
10990000   0.79966982  -0.25827277    2.5867091    35416.424 
11000000   0.80156143  -0.26079943    2.5885393    35416.424 
11010000   0.79525398  -0.28250663    2.5812646    35416.424 
11020000   0.80024953  -0.32315254    2.5796693    35416.424 
11030000   0.80184639  -0.27459027    2.5853218    35416.424 
11040000   0.80176392   -0.2627357    2.5839867    35416.424 
11050000   0.79951686  -0.25784905     2.585895    35416.424 
11060000   0.79933959  -0.32194994    2.5828621    35416.424 
11070000   0.79690074  -0.25703601    2.5823804    35416.424 
11080000   0.79560913  -0.24519701    2.5776264    35416.424 
11090000   0.79874092  -0.24452218    2.5838555    35416.424 
11100000   0.79920104  -0.25862199    2.5803298    35416.424 
11110000   0.79596385  -0.26930293    2.5828314    35416.424 
11120000   0.80655349  -0.26489386    2.6007323    35416.424 
11130000   0.80758459  -0.29725221    2.5953354    35416.424 
11140000   0.80105146  -0.22509407    2.5823056    35416.424 
11150000   0.80252945  -0.29467966    2.5809807    35416.424 
11160000   0.79752925  -0.21214139    2.5836911    35416.424 
11170000   0.80036338  -0.26678921    2.5799667    35416.424 
11180000   0.80380573  -0.22527615    2.5914471    35416.424 
11190000   0.80119116  -0.26877509    2.5854708    35416.424 
11200000   0.79966271  -0.25920512    2.5843314    35416.424 
11210000    0.8008075  -0.34409901    2.5726538    35416.424 
11220000   0.80343799  -0.25569361    2.5899077    35416.424 
11230000   0.80454686  -0.32787198    2.5829394    35416.424 
11240000   0.80751439   -0.2129734    2.5960563    35416.424 
11250000   0.80069123  -0.30455467    2.5820139    35416.424 
11260000     0.797298   -0.3195774    2.5767497    35416.424 
11270000    0.8045732  -0.31102131    2.5930915    35416.424 
11280000   0.80204502  -0.28135086     2.594225    35416.424 
11290000   0.80700036  -0.30452238    2.5956464    35416.424 
11300000   0.79703734  -0.33670739    2.5816649    35416.424 
11310000    0.8019814  -0.32625256    2.5882092    35416.424 
11320000   0.79700293  -0.30379005    2.5800083    35416.424 
11330000   0.79255324  -0.27107425    2.5698385    35416.424 
11340000    0.7968235  -0.26483531    2.5752473    35416.424 
11350000   0.80189693  -0.26968129    2.5874368    35416.424 
11360000   0.79022811  -0.29615231    2.5656482    35416.424 
11370000   0.80014803  -0.33539653    2.5874056    35416.424 
11380000   0.79698396  -0.27199526    2.5775474    35416.424 
11390000   0.79625632  -0.32061411    2.5729514    35416.424 
11400000   0.79084441  -0.30650053    2.5713878    35416.424 
11410000    0.8076543  -0.29095036    2.5963999    35416.424 
11420000   0.80251189  -0.24396486     2.585955    35416.424 
11430000   0.80271036  -0.30056177     2.592971    35416.424 
11440000   0.79973038  -0.28314254    2.5834482    35416.424 
11450000   0.80144216  -0.31849534    2.5859511    35416.424 
11460000   0.79391476  -0.26472715    2.5716046    35416.424 
11470000   0.81042608  -0.28019537    2.5956804    35416.424 
11480000   0.79758985  -0.30215878    2.5732631    35416.424 
11490000   0.80607046  -0.23969306    2.5938534    35416.424 
11500000   0.79606081  -0.32122549    2.5714094    35416.424 
11510000   0.79603377  -0.31436848    2.5707016    35416.424 
11520000   0.80122634  -0.33006798     2.585446    35416.424 
11530000   0.80346737  -0.29034841    2.5868638    35416.424 
11540000   0.80102284  -0.31252338    2.5835161    35416.424 
11550000    0.7913435  -0.33643897    2.5696984    35416.424 
11560000   0.79943729  -0.26443763    2.5866369    35416.424 
11570000   0.80339623  -0.30815907    2.5865446    35416.424 
11580000   0.79143514  -0.30176697    2.5681861    35416.424 
11590000   0.79207806  -0.26320429    2.5835264    35416.424 
11600000   0.79814089  -0.27545527    2.5805702    35416.424 
11610000   0.80626024  -0.31544506    2.5909835    35416.424 
11620000   0.80035321  -0.28684272    2.5877207    35416.424 
11630000   0.79709359  -0.26204137    2.5787348    35416.424 
11640000   0.79925811  -0.29162076    2.5795062    35416.424 
11650000   0.79620503  -0.32546696    2.5781483    35416.424 
11660000   0.79756377  -0.30591385    2.5813209    35416.424 
11670000   0.80033646  -0.30764862    2.5873606    35416.424 
11680000   0.79402745  -0.32839352    2.5717868    35416.424 
11690000   0.80242022  -0.28583214     2.582367    35416.424 
11700000    0.8033585  -0.33357893     2.584654    35416.424 
11710000   0.80138618  -0.31054834    2.5896814    35416.424 
11720000   0.80329344   -0.3165525    2.5901478    35416.424 
11730000   0.79931886  -0.25258183    2.5763379    35416.424 
11740000   0.80621861  -0.29535827    2.5929269    35416.424 
11750000   0.80113668  -0.28038246    2.5813797    35416.424 
11760000   0.79601844  -0.32673294    2.5718805    35416.424 
11770000   0.80435584  -0.30112359     2.585902    35416.424 
11780000   0.79422287  -0.29610978    2.5726895    35416.424 
11790000   0.79710422  -0.32843537     2.571782    35416.424 
11800000   0.79664018  -0.30196933    2.5683502    35416.424 
11810000   0.80197366  -0.28144299    2.5853339    35416.424 
11820000   0.79836959  -0.33918425     2.579001    35416.424 
11830000   0.79741258  -0.30230162     2.577401    35416.424 
11840000   0.79710958   -0.2718616     2.587963    35416.424 
11850000    0.7915638  -0.29405741    2.5750768    35416.424 
11860000   0.79607643  -0.34094744    2.5721343    35416.424 
11870000   0.80584904  -0.32913268    2.5829427    35416.424 
11880000   0.79986328  -0.25086105     2.583963    35416.424 
11890000   0.80658626  -0.24278564    2.5828892    35416.424 
11900000   0.79871185  -0.28154296    2.5822383    35416.424 
11910000   0.80651805  -0.27357823    2.5902954    35416.424 
11920000   0.80812662  -0.29077836    2.5836357    35416.424 
11930000   0.80676473  -0.26374252    2.5926245    35416.424 
11940000    0.7984467   -0.2930059    2.5781815    35416.424 
11950000   0.79448947  -0.27749923    2.5715533    35416.424 
11960000   0.80137864  -0.31616516    2.5853746    35416.424 
11970000   0.80002826   -0.3158079    2.5866096    35416.424 
11980000   0.79398512   -0.3187421     2.573219    35416.424 
11990000   0.79725392  -0.29076556    2.5728201    35416.424 
12000000   0.80002828  -0.33935213    2.5746173    35416.424 
Loop time of 48674 on 216 procs for 5000000 steps with 28900 atoms

Performance: 44376.836 tau/day, 102.724 timesteps/s
99.9% CPU use with 216 MPI tasks x 1 OpenMP threads

MPI task timing breakdown:
Section |  min time  |  avg time  |  max time  |%varavg| %total
---------------------------------------------------------------
Pair    | 512.69     | 653.3      | 844.28     | 244.9 |  1.34
Bond    | 7.5823     | 9.9799     | 12.819     |  27.7 |  0.02
Kspace  | 43076      | 43737      | 44168      | 108.2 | 89.86
Neigh   | 645.57     | 672.4      | 708.49     |  55.0 |  1.38
Comm    | 1115.5     | 1525.3     | 2054.1     | 435.1 |  3.13
Output  | 2.7171     | 2.7185     | 2.7616     |   0.2 |  0.01
Modify  | 1518.9     | 1709.7     | 1979.1     | 225.8 |  3.51
Other   |            | 363.2      |            |       |  0.75

Nlocal:    133.796 ave 200 max 106 min
Histogram: 10 67 66 25 16 9 16 1 3 3
Nghost:    975.282 ave 1189 max 856 min
Histogram: 15 31 41 48 41 15 12 7 3 3
Neighs:    4980.57 ave 9552 max 3345 min
Histogram: 33 82 38 17 18 10 10 2 3 3

Total # of neighbors = 1075804
Ave neighs/atom = 37.2251
Ave special neighs/atom = 0.602076
Neighbor list builds = 672775
Dangerous builds = 0
System init for write_restart ...
PPPM initialization ...
  using 12-bit tables for long-range coulomb (src/kspace.cpp:332)
  G vector (1/distance) = 1.16623
  grid = 96 96 96
  stencil order = 5
  estimated absolute RMS force accuracy = 0.000109911
  estimated relative force accuracy = 0.000109911
  using double precision FFTW3
  3d grid and FFT values/proc = 9261 4608
WARNING: Neighbor exclusions used with KSpace solver may give inconsistent Coulombic energies (src/neighbor.cpp:486)
Neighbor list info ...
  update every 1 steps, delay 0 steps, check yes
  max neighbors/atom: 2000, page size: 100000
  master list distance cutoff = 2.8
  ghost atom cutoff = 2.8
  binsize = 1.4, bins = 24 24 24
  2 neighbor lists, perpetual/occasional/extra = 2 0 0
  (1) pair lj/cut, perpetual
      attributes: half, newton on
      pair build: half/bin/newton
      stencil: half/bin/3d/newton
      bin: standard
  (2) pair coul/long, perpetual, skip from (1)
      attributes: half, newton on
      pair build: skip
      stencil: none
      bin: none
Total wall time: 15:03:31
