9000
Atoms. Timestep: 0
N 1.607300 2.167670 1.123630
N 2.021410 2.343470 1.945040
N 1.683170 3.263840 1.463290
N 1.525000 3.304750 2.365620
N 2.444660 3.585790 2.362180
N 1.117600 2.926630 0.813824
N 2.753490 2.699420 2.506800
N 1.045270 5.968460 0.993167
N 1.185070 1.643510 31.011900
N 2.495090 1.937610 31.065400
N 1.461110 3.258480 30.867400
N 0.876183 2.120140 31.793600
N 0.923011 1.217410 32.041600
N 1.872450 1.458990 31.906400
N 3.159530 2.414870 31.584300
N 2.549190 2.038750 32.266300
N 1.821980 2.575820 31.459700
N 1.928690 5.627710 33.152300
N 0.811076 5.707510 32.642800
N 1.192530 19.913200 1.642590
N 1.499510 19.692700 33.256300
N 1.169770 25.437500 27.720000
N 1.650190 26.891600 27.610300
N 0.883781 27.175800 26.818800
N 1.824040 27.159500 26.722800
N 1.282410 26.576700 28.733500
N 2.129220 27.046300 28.848800
N 1.867080 26.041800 27.934800
N 3.826360 27.019800 28.508200
N 4.061960 27.670100 29.177700
N 3.160810 27.088600 29.154100
N 4.432720 26.855600 29.460300
N 1.731960 27.151800 29.715600
N 2.199490 26.941600 30.486200
N 2.962190 27.487300 29.993700
N 5.019940 27.504300 29.850100
N 6.019630 27.331900 29.807000
N 1.382580 28.158500 27.504800
N 1.552080 29.284300 27.168300
N 1.328200 28.517500 26.633400
N 0.874985 29.484900 27.905400
N 1.305750 28.739000 28.399300
N 1.850060 29.328000 29.226100
N 1.664120 28.430300 29.609700
N 1.170990 29.978800 29.029600
N 1.150000 29.223400 30.212600
N 1.177130 27.858200 30.285500
N 2.132920 27.909800 30.492600
N 1.405280 29.213400 31.109800
N 2.029700 29.054100 30.366600
N 0.788382 28.466900 31.016100
N 2.819510 29.355100 29.919100
N 3.038240 29.326600 30.857900
N 3.133520 28.380400 30.417500
N 25.525800 1.824040 27.616200
N 25.916500 1.215420 27.054200
N 25.662900 1.607690 26.231600
N 26.862300 1.472410 27.515300
N 27.069000 2.484300 27.148800
N 26.411400 2.150390 26.507200
N 26.319100 2.410390 29.386600
N 26.174600 1.311240 28.159400
N 27.278000 2.524320 29.190600
N 27.053900 4.121870 29.574700
N 26.485400 3.330870 29.064000
N 26.524400 4.202400 28.700700
N 27.591600 2.638060 27.937300
N 25.879200 4.378170 29.462000
N 25.199800 4.632020 28.891000
N 26.617100 6.134510 28.920800
N 27.402200 5.681050 29.297800
N 27.735400 5.990230 28.439900
N 27.004300 3.416530 31.306700
N 25.866300 4.783760 30.315700
N 25.484400 5.861110 29.796400
N 25.058900 5.024800 29.728600
N 27.477800 5.117290 30.283600
N 27.310700 4.373560 31.174900
N 26.522100 5.276110 30.866500
N 27.725500 2.273270 32.059200
N 26.895400 1.871110 32.248000
N 27.069200 2.300320 33.073600
N 25.847200 3.121360 32.342800
N 25.876100 4.119460 32.311900
N 26.571600 3.133020 33.010000
N 27.510200 3.163800 32.088000
N 25.734900 5.276340 32.521000
N 26.108500 5.165520 31.691900
N 26.308300 4.639060 32.970600
N 25.916600 7.056730 0.781238
N 27.368700 7.787210 2.298150
N 26.972800 7.135300 1.736180
N 26.737900 6.589740 0.920719
N 27.413200 8.573050 1.707120
N 26.575900 6.820360 29.620600
N 27.216200 8.458260 28.260200
N 26.133200 6.293840 30.339900
N 27.563300 8.429340 30.646700
N 27.551100 9.019110 29.759000
N 27.130000 8.159510 29.848500
N 27.293000 7.423450 32.455700
N 26.351700 7.188810 32.475200
N 26.316400 31.325000 1.444660
N 27.009000 31.040600 0.878858
N 26.497500 31.976400 0.748986
N 27.220800 33.116200 27.721900
N 27.613800 33.171900 29.623900
N 27.297200 31.596300 30.420900
N 27.820900 32.353000 30.222100
N 27.720200 30.608300 32.224500
N 27.001700 31.313400 32.498600
N 27.838700 29.904000 32.817700
N 27.730600 32.979600 32.771300
N 27.396100 32.127400 33.008100
N 29.127800 2.466360 1.013810
N 28.664300 3.609180 0.892990
N 29.265900 3.288180 1.515470
N 28.882000 4.261620 1.935320
N 30.089000 4.215320 1.281460
N 30.878500 4.058970 1.816090
N 30.347900 3.294100 1.736980
N 29.931800 4.115670 2.256260
N 31.408500 4.254010 0.982881
N 30.675900 3.493590 0.864234
N 29.474100 4.985410 1.995830
N 28.379000 5.049710 2.294030
N 28.719300 4.955550 1.079530
N 28.681100 5.814180 1.603750
N 29.599400 6.131500 1.738570
N 30.709500 4.960270 1.001370
N 31.423100 5.992160 1.174210
N 32.304000 5.435890 1.382530
N 29.330000 5.169060 3.028810
N 29.372500 5.853360 3.650120
N 28.144300 5.815950 2.777140
N 29.781000 5.929950 2.730460
N 28.566500 6.139270 26.974200
N 30.600100 2.013980 29.610000
N 31.762000 2.411950 29.241500
N 28.240000 2.607780 28.889300
N 28.335300 3.262320 28.141600
N 31.067300 2.939610 29.580600
N 32.724300 2.658040 29.185700
N 29.322400 5.711460 28.753500
N 28.513300 5.931690 27.922700
N 27.909400 4.551730 29.566500
N 30.132600 5.802280 29.219500
N 27.974100 0.927610 30.760300
N 29.628300 0.778404 30.476600
N 28.799300 0.750809 31.198500
N 30.515000 1.355740 30.283500
N 31.370700 2.239320 30.299400
N 32.607800 1.934510 31.182500
N 33.043600 1.811550 30.316700
N 28.762000 3.697410 31.215900
N 31.288000 2.714190 31.108500
N 32.262100 2.614900 30.100600
N 33.120400 2.877470 30.714400
N 28.219800 5.671300 29.955700
N 29.166000 5.699820 29.764000
N 30.335400 5.894460 30.322800
N 31.205800 5.565290 30.495300
N 30.041400 2.350630 33.248700
N 29.511600 3.887260 32.987900
N 27.967000 3.928700 31.708800
N 30.430900 4.329110 32.852200
N 30.399900 3.445560 32.522200
N 31.454200 4.147780 32.565500
N 32.236200 3.795340 32.964500
N 32.498400 3.847020 31.885900
N 33.118500 3.211040 31.565800
N 32.112700 2.697820 31.526900
N 33.171800 3.442510 32.715800
N 29.540900 4.841270 33.137900
N 31.525600 5.044100 32.995600
N 32.578900 4.887000 33.147200
N 33.071000 4.460360 32.423400
N 28.007600 6.862970 2.077990
N 28.895700 7.096250 1.901870
N 28.249500 6.713970 1.159050
N 28.676100 7.583800 0.951828
N 30.713200 6.900670 0.927337
N 30.422200 6.465710 2.321460
N 29.760800 6.987820 1.336270
N 31.620300 7.049490 1.241910
N 31.984100 6.453300 1.863750
N 28.256400 8.113000 1.633520
N 28.581400 6.440790 3.659760
N 28.884200 6.445520 2.755280
N 28.850700 7.030490 27.190300
N 29.613000 6.488540 26.785600
N 29.342700 7.234990 26.090000
N 30.342600 7.072930 26.941600
N 31.147000 7.801550 27.625800
N 29.664800 7.678790 27.658100
N 29.189600 8.477690 27.455000
N 29.356800 8.039420 26.670200
N 30.194700 8.451070 27.842900
N 30.668800 8.100550 26.831900
N 29.972700 9.424790 27.802400
N 29.418400 7.892130 29.556400
N 30.492500 7.591060 28.563900
N 30.046200 6.732300 28.756300
N 30.839800 6.966470 27.880700
N 27.847100 8.399290 28.962400
N 31.060500 8.051830 29.494300
N 30.839800 9.610570 28.113100
N 31.508200 9.474690 28.750700
N 31.665100 8.751020 29.461800
N 28.091900 7.705490 31.016200
N 28.934800 7.538060 30.295100
N 28.745700 6.559930 30.226300
N 29.515300 6.751760 29.669300
N 30.233200 7.357110 29.867900
N 31.440100 6.476090 30.738400
N 30.861900 6.645350 29.853100
N 28.339500 8.421510 29.814100
N 29.746100 8.437870 30.265900
N 30.648200 8.628760 30.131300
N 28.045300 7.778730 31.947900
N 29.638200 7.819650 33.227900
N 30.536800 7.733640 32.938400
N 30.963600 6.887320 32.232500
N 31.214800 6.197860 31.608100
N 31.590100 7.276870 32.839700
N 32.646200 7.184700 31.719000
N 32.986000 6.500810 32.280300
N 31.996400 6.670860 32.251800
N 30.188900 20.523000 0.829000
N 32.927500 19.826700 2.166870
N 29.183800 21.788900 0.768089
N 30.327200 21.509600 1.292700
N 31.093300 22.051500 1.434890
N 30.975100 20.850400 1.131160
N 32.881600 21.692300 0.902397
N 31.927300 21.632900 1.146930
N 31.911200 21.348600 2.202020
N 31.378600 22.066800 2.558190
N 33.050600 21.260000 3.150530
N 32.704900 20.629300 2.557380
N 32.404200 21.904800 2.959900
N 29.762800 21.281800 32.736500
N 30.610600 20.836200 32.563100
N 29.996000 22.210100 32.744200
N 31.620500 22.821800 0.922958
N 32.695600 22.555500 1.246790
N 31.912700 22.449400 1.889240
N 30.305300 25.117800 1.036270
N 29.778600 25.785600 1.492770
N 30.834400 24.373500 0.741220
N 31.845900 24.522000 0.995207
N 30.576800 27.114200 1.006770
N 29.675000 27.469300 1.183800
N 30.008000 26.303100 0.756902
N 31.394200 27.486500 27.382400
N 33.037700 27.651400 27.546400
N 32.292000 27.228100 26.902400
N 31.679100 27.216800 28.582800
N 33.220200 26.049500 28.228600
N 32.262700 27.025600 27.848200
N 30.704100 22.735300 33.168500
N 31.703000 23.649600 33.007600
N 30.043500 24.490800 32.767800
N 30.400800 25.479000 32.182800
N 31.030000 25.509600 32.904000
N 32.524400 24.489000 31.954200
N 32.621600 24.515600 32.930300
N 31.932400 25.037500 31.459000
N 31.710200 25.103400 32.351000
N 30.730600 26.606200 32.797000
N 32.404900 27.532300 32.084100
N 31.323600 28.175300 1.403940
N 30.356300 28.090500 1.320280
N 30.386100 29.679400 1.008830
N 30.998900 28.397900 27.745700
N 30.797000 27.943000 26.803100
N 32.278000 29.397300 27.823200
N 32.796400 27.854100 26.380700
N 31.820800 28.877600 27.181500
N 31.976500 28.408900 26.319700
N 27.928800 33.212800 27.064400
N 30.959800 27.887800 28.540400
N 32.557800 29.616700 28.833300
N 32.904700 28.552700 28.203900
N 32.491600 27.918100 28.797900
N 31.980800 28.084500 29.531300
N 31.867000 28.104800 27.894800
N 31.783300 30.036500 28.415100
N 31.940700 31.115200 28.527500
N 32.613900 30.484400 28.136500
N 33.032600 30.658200 29.034700
N 28.182300 32.955200 27.943500
N 28.561500 33.166900 28.772800
N 31.256500 31.788200 28.326100
N 31.243700 32.701800 27.980100
N 28.793300 29.074700 31.454200
N 31.234900 28.653800 31.392500
N 32.798300 27.852600 29.888200
N 32.358900 29.205200 29.668600
N 32.642100 28.942200 30.526000
N 32.125300 28.289600 31.353800
N 29.314300 29.892000 30.814500
N 28.426600 30.335700 30.691700
N 28.075700 31.104400 30.243800
N 31.264500 30.387000 31.087000
N 30.840600 31.235200 31.092100
N 29.576400 32.718600 31.235200
N 28.509100 33.220300 29.972800
N 30.473100 33.112900 30.829700
N 29.440500 28.682100 31.979600
N 30.389200 28.811900 32.101400
N 31.333200 28.998100 32.258200
N 30.056000 28.529900 32.988100
N 30.768200 28.005200 32.705800
N 30.938800 28.935100 33.260200
N 31.717700 28.346100 33.044900
N 31.578000 27.981200 32.137000
N 32.408900 28.520500 32.243000
N 33.199500 28.102300 31.990800
N 28.744900 30.175600 33.045400
N 29.479900 29.678700 31.759600
N 28.058900 31.066500 33.003400
N 30.361100 29.659700 32.641300
N 29.699700 30.300500 32.861500
N 31.479700 29.865200 31.822400
N 28.445600 32.699600 32.231900
N 28.893900 32.611200 33.193700
N 28.775300 31.711700 32.995800
N 29.385100 32.367200 32.236700
N 29.737100 32.178400 33.136600
O 3.559700 1.360650 2.540750
O 3.096950 1.795230 1.780640
O 3.632380 1.374130 1.048600
O 4.083380 0.784944 1.666150
O 3.832300 1.917110 3.300810
O 3.819280 2.897600 3.511650
O 4.177870 2.450120 4.378500
O 5.166620 2.510720 4.605130
O 4.815780 3.574610 6.117220
O 5.527020 3.118570 5.162910
O 4.772530 2.777410 5.595160
O 5.588930 3.291770 6.587090
O 4.635470 33.021000 2.423690
O 6.035310 30.937000 5.012690
O 6.982570 2.528310 5.501590
O 6.696070 1.137010 5.481950
O 6.383680 2.421550 4.619430
O 7.077500 1.830720 4.861600
O 6.211250 2.844940 6.006590
O 6.785790 3.249540 4.920330
O 7.189510 27.714500 4.237780
O 8.015780 27.786300 3.758330
O 7.849930 28.104200 4.840320
O 7.893630 29.037700 5.073690
O 6.564810 30.332000 4.456780
O 7.088570 30.942700 5.334240
O 7.227020 29.681900 4.841190
O 6.447450 30.202400 5.482850
O 7.163340 31.943500 5.293680
O 7.182240 32.885500 5.215030
O 5.567020 6.132260 1.365390
O 5.157320 7.336590 32.269400
O 5.423330 7.518410 33.173000
O 4.407280 6.863340 32.637800
O 5.048930 6.505810 33.214300
O 9.404980 7.030340 1.247640
O 10.483900 7.267250 0.932404
O 10.074200 6.381140 1.089850
O 9.905390 7.374910 1.929280
O 6.203660 9.242550 1.184380
O 7.065260 9.068000 0.798618
O 9.043220 8.953120 1.648800
O 9.392230 8.102760 2.106810
O 8.492950 8.406010 2.273920
O 7.406950 9.796740 2.316430
O 6.962310 9.784520 1.494660
O 7.501510 10.666500 1.831060
O 7.696940 11.555300 1.512200
O 9.325720 9.845440 1.832180
O 8.223420 10.170900 1.177860
O 9.777540 9.794160 0.904877
O 10.102800 10.379300 1.682940
O 6.263720 7.418220 32.710100
O 6.623490 8.251670 33.168600
O 6.894210 8.070550 32.248200
O 8.544610 9.328960 33.224900
O 9.384270 9.254090 32.693400
O 7.145060 10.855000 33.256800
O 8.115440 10.879900 33.119000
O 6.862430 11.696200 1.078770
O 0.925307 1.172870 4.223270
O 0.736551 2.504310 5.022170
O 1.010120 5.581270 5.410800
O 1.167500 6.474570 5.314520
O 1.346570 7.280360 6.554710
O 1.479860 32.832700 3.656490
O 1.786890 31.655500 3.681770
O 1.358740 32.138100 2.949240
O 2.431620 31.824900 4.347510
O 1.598120 32.220000 4.496580
O 1.554900 33.126100 4.666950
O 32.786600 1.233770 3.383290
O 32.171200 1.958490 3.505930
O 31.566300 3.435180 2.786840
O 32.203100 2.893330 3.359440
O 31.740000 3.840460 3.695730
O 32.734500 3.871420 4.289490
O 32.800600 4.583190 3.665570
O 33.139400 1.129630 5.410540
O 32.725100 1.740650 4.780810
O 32.576100 2.997850 5.422950
O 32.394000 3.035120 4.406670
O 32.969200 5.887870 4.685650
O 33.200300 4.990160 4.457670
O 33.172800 6.801780 6.101410
O 33.035100 32.801600 4.322630
O 33.165600 32.894900 3.275100
O 32.391900 32.887900 5.028760
O 32.385900 33.140900 5.991640
O 33.264400 33.244300 6.304660
O 1.202840 4.195580 3.032970
O 1.292280 2.991080 4.045220
O 4.195540 3.721920 4.099070
O 4.079160 4.101600 3.251480
O 1.924650 4.744810 2.960890
O 2.848840 5.117800 2.993660
O 3.319290 4.392870 2.728650
O 27.239700 32.472400 1.580950
O 27.808200 32.707400 2.432120
O 31.826200 1.453010 1.862190
O 32.008700 1.024410 0.986036
O 32.747100 1.965080 1.837220
O 32.097200 2.174420 2.458000
O 33.120300 4.182590 2.291150
O 33.114000 2.816640 1.957230
O 30.922900 1.452040 3.725670
O 30.294600 0.980650 3.125140
O 33.121300 2.396240 3.770850
O 33.188600 2.335510 2.798100
O 32.545200 3.559520 2.648420
O 33.195800 3.305410 3.330140
O 28.590400 32.886500 1.810670
O 27.866400 33.014600 1.215680
O 31.261400 32.297300 2.154910
O 31.743600 32.859200 1.572130
O 28.512000 32.071000 2.577260
O 29.357000 32.576400 2.629020
O 29.673300 32.823500 3.500510
O 30.879200 32.393600 3.006230
O 31.371200 33.240600 3.311910
O 4.546610 0.752550 5.826830
O 4.526220 1.468350 6.407310
O 4.183060 32.489100 7.581270
O 4.530020 33.116600 6.845450
O 5.968650 32.087800 8.939220
O 4.730140 32.107600 8.263320
O 5.014410 32.305300 9.103640
O 5.899720 30.930600 11.328900
O 1.933320 29.883400 13.294600
O 3.976690 30.416600 13.292800
O 4.430350 30.545900 12.457600
O 5.139620 30.775100 11.878000
O 1.407690 29.581600 14.230300
O 0.895698 28.839800 13.712500
O 1.061420 30.258300 13.651700
O 2.224910 30.379400 14.038100
O 3.165530 30.079800 13.721300
O 6.572540 31.542700 9.442370
O 7.914170 30.436500 11.368900
O 6.965450 30.191600 11.550000
O 6.867740 31.032500 11.113500
O 7.183380 31.425200 10.175900
O 7.572740 31.818100 11.037700
O 8.247380 32.386500 11.433200
O 7.916620 31.258600 11.887600
O 7.428680 30.748700 12.547400
O 7.411950 31.620800 12.973900
O 7.412960 32.359400 11.842300
O 8.913200 32.266300 12.035600
O 8.189200 32.059900 12.692500
O 1.972630 3.628630 5.979120
O 1.401510 2.821370 5.897100
O 2.542850 4.195730 5.459060
O 3.317940 3.952010 4.833610
O 1.883180 1.990840 7.299990
O 1.212180 1.631980 6.676850
O 1.399330 1.438040 7.862100
O 1.066770 2.933410 6.791040
O 1.209380 1.376390 9.128220
O 0.851447 2.286340 8.845840
O 1.031940 32.926400 8.909210
O 1.181400 32.205600 9.569490
O 32.947100 1.549810 7.936560
O 32.878800 1.849610 6.969560
O 32.713200 2.677920 7.362340
O 32.675800 2.893420 6.448990
O 32.084000 1.819290 9.752310
O 32.475400 2.374500 8.546350
O 32.722300 1.382440 8.894560
O 32.894800 3.970360 9.406830
O 32.004400 2.756070 9.528660
O 32.771500 3.257330 8.745880
O 32.063300 4.299590 9.743540
O 31.504600 3.570280 9.463690
O 32.389300 1.709490 10.647300
O 32.659300 2.594840 10.939000
O 32.742500 32.422600 9.554010
O 31.963700 32.940300 9.004430
O 32.193000 32.070600 8.848290
O 32.585300 33.148400 8.330810
O 0.848093 5.916410 9.007040
O 1.777110 5.918070 9.219790
O 1.136860 4.995260 9.392430
O 1.618400 3.399290 11.527400
O 2.582020 3.258720 11.494700
O 1.352690 5.414900 11.434600
O 1.607070 5.269670 10.457500
O 0.827635 5.711810 10.097300
O 2.224760 4.077630 11.777100
O 1.375520 4.643250 11.988200
O 1.750620 6.764280 8.766270
O 1.016800 7.357240 8.779810
O 1.127910 6.853130 9.607490
O 1.864050 10.150700 9.689210
O 2.545740 10.684700 9.275250
O 1.790360 6.243840 10.262500
O 2.228230 6.166580 11.129400
O 2.127300 6.981090 9.792740
O 2.911750 6.427600 10.305600
O 2.981990 7.304430 10.714300
O 3.196550 6.228990 11.253800
O 2.429920 8.918140 10.687000
O 2.494890 8.033510 10.382900
O 2.458240 9.797020 10.321200
O 3.380470 11.846900 8.366280
O 2.789830 11.597600 9.075010
O 32.858900 4.201130 11.330500
O 33.138500 4.797940 10.210300
O 33.193500 3.455530 11.732200
O 32.960100 4.942300 12.033700
O 2.936670 5.436810 8.734780
O 2.869630 7.819110 5.206030
O 3.681870 7.549360 5.676450
O 2.493330 8.644480 5.583610
O 4.515970 8.132150 5.585180
O 4.885430 8.935780 6.016990
O 2.511470 6.180100 7.151910
O 3.035250 6.379620 7.917930
O 2.925770 7.779690 6.338700
O 2.564500 7.155970 7.258380
O 3.559090 7.067000 7.243910
O 4.329030 7.828390 7.603640
O 2.331180 8.994300 6.497900
O 2.054240 8.085020 6.704940
O 1.599600 9.568830 6.382620
O 2.216620 9.554260 7.340700
O 1.992690 8.646510 7.489860
O 4.179040 9.156600 6.795750
O 4.228750 8.951490 7.748460
O 5.259110 9.707120 6.453250
O 1.602320 10.284000 6.993210
O 2.502660 10.220300 6.644190
O 4.422680 10.067500 6.590560
O 2.926710 7.327680 8.351140
O 3.653530 7.076340 8.923620
O 3.968530 6.825710 8.060430
O 2.678590 6.322170 8.891360
O 3.528340 8.035040 8.162820
O 5.061290 8.856780 8.219730
O 4.622460 8.039920 8.518150
O 3.832410 2.075680 11.432400
O 3.870090 1.584650 12.213400
O 4.559740 0.989366 12.569200
O 4.765120 0.953547 11.606600
O 3.381720 2.562490 12.355100
O 3.620990 3.204400 12.974800
O 3.820910 4.182280 12.926300
O 3.667910 2.990970 11.604600
O 4.504040 4.801150 13.107500
O 3.248950 4.182610 14.302300
O 3.866100 4.700270 13.853200
O 2.947250 4.952970 14.786500
O 2.771420 4.235360 16.739100
O 3.479250 4.315280 15.377100
O 3.007720 3.766900 15.971200
O 2.904460 4.874260 16.096400
O 3.410900 5.143840 16.858300
O 3.263770 4.014070 17.685100
O 5.016170 3.435960 18.575200
O 5.981300 3.322270 18.552700
O 4.027910 4.436040 18.068900
O 2.852560 4.966340 17.640700
O 2.977250 4.522140 18.457700
O 4.230350 3.272860 19.164800
O 4.161550 4.196090 18.959700
O 4.870320 30.975700 10.416800
O 4.571080 31.562900 11.128500
O 5.320790 32.842400 11.184900
O 5.405850 31.882500 11.535200
O 5.026590 31.918600 10.218000
O 5.275420 2.495050 11.421600
O 5.440230 1.870810 12.107100
O 5.549840 1.282980 12.835400
O 6.109700 3.187220 12.889200
O 5.466920 2.889130 12.269800
O 5.644380 1.045500 13.772100
O 6.041540 0.929096 14.637400
O 6.768260 4.901210 11.371100
O 7.872540 1.653240 12.771200
O 7.293130 2.389760 12.577600
O 7.691310 0.785567 12.405000
O 8.458640 1.060330 11.866500
O 6.960080 3.589810 12.635200
O 7.580660 4.457430 12.874200
O 7.290540 5.535430 12.862400
O 7.507000 4.984220 11.915700
O 8.202410 5.283160 12.534400
O 7.068660 2.467360 14.697700
O 6.397080 1.796700 14.398300
O 7.567880 2.526610 13.470600
O 6.698240 3.974130 13.493800
O 6.760380 2.735630 13.865700
O 7.006340 3.646010 14.944900
O 6.347710 4.036900 14.405500
O 8.228790 4.263260 14.688900
O 6.663390 5.702960 13.557300
O 7.188630 4.923220 13.632500
O 8.214760 4.521740 13.565100
O 8.969210 4.518700 14.162200
O 7.771220 3.856030 15.464600
O 5.956980 5.530010 11.190700
O 5.169090 5.734030 12.026300
O 5.564640 4.892820 11.775500
O 5.865900 7.034440 5.782850
O 5.766230 6.821010 7.612490
O 5.726780 6.702490 6.650940
O 5.121860 6.791990 8.248800
O 5.621470 7.154480 8.936840
O 6.084860 7.057430 10.191700
O 5.174330 6.651850 11.722900
O 5.968710 7.227950 13.188900
O 5.899160 7.861850 12.510900
O 6.100750 6.745850 12.063800
O 6.137500 10.189500 11.973400
O 6.435130 7.827010 5.670860
O 6.904190 8.108260 4.882850
O 7.831150 8.343380 4.857990
O 8.692290 8.056130 4.699080
O 6.411530 7.533600 9.284650
O 7.073500 7.092210 10.317200
O 6.237270 6.262260 10.719100
O 7.094130 9.604410 11.451200
O 6.966550 7.981700 9.978130
O 6.416550 10.062200 11.072100
O 6.609010 6.529060 12.857200
O 6.394720 8.267370 13.228700
O 7.823250 8.833230 12.330700
O 6.668580 9.417410 12.390900
O 7.941950 9.682830 11.873300
O 6.782440 8.493110 12.381700
O 2.360840 5.883560 14.538400
O 2.754660 6.151630 15.461200
O 1.204630 6.954620 12.416900
O 1.174490 6.421200 13.230400
O 1.666030 6.341540 14.033000
O 1.962940 6.575640 15.035800
O 3.005770 6.912580 14.950400
O 3.235570 7.293300 15.787200
O 4.046370 7.149910 16.364300
O 3.675120 7.395570 17.973800
O 4.266770 7.303630 17.271500
O 4.737830 7.811730 18.193900
O 3.899510 8.151520 18.568200
O 5.216620 8.385200 18.804100
O 5.623200 11.025200 18.089800
O 5.009560 9.250630 19.131500
O 5.452960 9.757540 19.812700
O 5.910890 11.285300 19.160800
O 5.508200 10.569000 20.355900
O 4.916630 10.808600 19.585200
O 5.398160 10.453800 18.842000
O 6.704150 10.883500 18.755000
O 7.185040 11.396100 18.070200
O 6.397200 11.328000 20.005000
O 8.093470 11.373400 20.110800
O 8.773100 11.325100 21.567300
O 6.286970 11.732800 18.234700
O 7.287570 11.794600 19.813000
O 8.049800 11.745600 21.008700
O 33.120200 7.661540 12.531500
C 1.773420 5.818380 16.131300
C 0.999595 5.168520 15.925100
C 1.104430 6.078730 15.506600
C 2.234430 6.024090 22.319700
C 1.121350 1.342460 23.508800
C 1.156520 1.745220 22.632700
C 1.703870 0.835763 22.895300
C 1.201960 6.479690 11.391600
C 0.831756 7.593330 10.839400
C 0.778127 8.706910 10.280600
C 2.414590 8.209440 11.406200
C 1.590770 8.340510 10.907500
C 1.805160 9.474520 11.283800
C 1.457840 9.353500 10.410000
C 0.850745 9.222990 11.420800
C 4.498560 10.770500 11.541900
C 1.925950 8.145470 12.774300
C 1.862410 8.899150 12.083600
C 1.422430 8.000870 11.805100
C 0.953584 8.841220 12.446400
C 2.780230 8.206250 12.271500
C 2.270670 10.083900 12.071100
C 1.351850 9.924580 12.324700
C 2.546620 11.011300 12.078900
C 3.692120 11.119400 11.859700
C 0.779003 7.705250 14.346300
C 1.394080 7.804200 15.113600
C 1.312810 6.923000 16.079900
C 1.627430 6.570330 16.893700
C 1.202410 7.469770 16.870900
C 0.819919 7.982670 15.873100
C 1.235280 8.465540 16.934000
C 1.390350 6.529390 22.343100
C 1.237820 7.389530 21.614300
C 1.094430 7.414520 22.561000
C 4.157710 11.671500 10.574000
C 4.782020 11.640800 11.326100
C 3.076100 11.793500 12.257300
C 11.416100 1.482950 2.401150
C 11.106400 2.240900 2.888410
C 11.426100 1.137670 3.264370
C 10.807500 2.024790 4.113510
C 11.108500 1.649230 6.013430
C 10.885400 1.914410 5.102220
C 11.469100 32.617100 6.071620
C 11.835900 1.425850 4.103010
C 11.618800 2.323330 3.651770
C 16.531400 1.590280 3.946450
C 16.909400 1.195800 3.179940
C 11.606000 0.898966 5.535540
C 16.528200 2.199510 5.535340
C 16.851600 1.393960 5.981770
C 16.994500 1.616590 4.814360
C 16.277500 0.738017 5.287110
C 15.865100 3.650960 4.976890
C 16.066000 3.223830 5.875530
C 16.779800 3.948350 4.956170
C 16.434600 4.522580 5.667330
C 16.055600 5.389480 5.883390
C 16.524600 6.146570 5.606020
C 16.767000 1.108730 7.099700
C 16.684700 3.041310 6.622860
C 16.910100 1.233490 20.613500
C 16.789800 1.219540 19.465300
C 16.272600 0.757286 20.083000
C 16.042300 1.909470 29.493300
C 15.517600 1.186560 29.926200
C 15.941200 2.157290 31.353700
C 16.263800 1.770720 30.533500
C 15.611100 1.294630 31.021400
C 16.210400 2.633970 30.140400
C 15.945900 2.269690 32.285600
C 14.855800 3.566950 32.192100
C 15.722800 3.160480 31.913700
C 15.024100 7.087240 3.606580
C 15.903200 7.283200 3.967490
C 15.107400 7.137750 4.658770
C 16.961500 7.861330 4.960620
C 15.491600 6.958490 5.538400
C 16.089900 7.591420 5.199800
C 16.396900 6.812950 6.230190
C 16.551800 11.124800 9.142040
C 16.322400 11.487400 10.075500
C 16.747700 10.591500 9.940020
C 16.194700 13.284700 7.016650
C 14.623000 13.499300 7.852030
C 14.998400 14.371700 7.862970
C 15.657700 14.002800 7.338960
C 16.571100 13.682200 7.942460
C 16.861100 14.087600 7.154620
C 14.494100 13.327400 8.887370
C 14.611300 12.464600 8.574870
C 15.438400 12.661200 9.197710
C 16.277700 12.241100 9.478860
C 14.097200 14.050800 8.383180
C 15.054700 13.110000 9.950200
C 15.299800 12.259300 10.269000
C 15.692000 12.714400 11.023300
C 16.172700 12.597900 11.868200
C 13.481800 31.899100 3.906690
C 14.956100 32.114700 3.791780
C 15.897900 32.262100 3.961070
C 13.154000 31.723300 6.140100
C 12.866300 32.051000 4.622380
C 12.200700 32.253400 5.591140
C 12.247800 33.137900 4.463530
C 12.792300 32.848000 6.032690
C 13.542300 31.978600 5.251980
C 14.759000 31.892600 4.719430
C 14.067100 32.435800 4.480870
C 16.304500 32.452900 4.790680
C 16.711300 32.071500 5.723650
C 15.809200 32.056600 5.950260
C 13.052400 33.107300 6.910430
C 13.263400 32.210100 7.007170
C 15.728400 32.380900 6.876190
C 16.425200 32.944200 6.466950
C 16.921100 32.693700 7.327050
C 16.966800 28.584900 13.200000
C 16.685100 30.545600 16.653800
C 15.515600 33.006700 30.571400
C 19.305200 0.806425 2.032780
C 20.698400 1.203130 1.587400
C 21.302000 1.814700 2.100620
C 18.309500 0.745443 3.470210
C 18.974300 1.769570 3.515120
C 18.879100 1.446790 2.625970
C 19.638900 0.754327 3.002370
C 22.217800 2.163680 3.743640
C 20.819400 2.442210 2.631460
C 21.719800 2.401870 2.906180
C 19.350400 2.626480 3.698920
C 17.502100 2.122420 5.679940
C 21.533900 2.157490 4.438380
C 20.739100 1.678180 4.629390
C 17.555700 3.820110 6.110730
C 18.199900 2.597750 5.151040
C 18.921800 2.698520 4.549390
C 18.287100 4.530990 6.018490
C 18.338700 1.954470 6.221020
C 18.218800 1.627200 7.381100
C 17.583200 1.091560 6.545110
C 17.986300 2.451240 7.802830
C 18.854800 1.089620 6.262060
C 19.316900 2.105150 6.554240
C 18.248400 3.910770 6.815260
C 17.615500 2.897750 6.469210
C 18.685200 2.623120 7.134140
C 19.965200 2.755500 6.686070
C 19.962800 3.732370 6.662830
C 19.161000 4.107420 6.279260
C 20.549400 0.866529 9.336770
C 21.665600 0.753992 9.074040
C 19.820300 1.217410 9.848620
C 21.287500 0.772428 10.258100
C 21.940700 1.296380 16.011700
C 18.494100 2.522710 18.280500
C 18.567900 2.260050 17.343800
C 18.076900 0.857890 18.635400
C 17.224000 1.229210 18.608800
C 20.335000 2.017110 17.894800
C 22.207100 0.798371 17.243700
C 18.422400 3.591360 18.444200
C 17.671100 3.144350 18.758700
C 18.328900 4.160580 17.438800
C 17.595000 3.882170 18.050400
C 18.859000 3.192950 17.430100
C 19.586800 2.563590 17.611500
C 19.343500 3.366520 18.384000
C 20.884900 2.717890 18.296100
C 21.805100 3.347950 17.058200
C 21.974700 4.264540 17.357100
C 21.122100 5.113660 18.565300
C 21.942100 5.193960 17.703600
C 20.930600 5.058150 17.631500
C 17.662600 2.074310 20.411800
C 18.215200 1.526310 19.875000
C 21.954800 2.181720 20.545900
C 21.269600 1.653870 20.228700
C 18.294900 3.461360 19.590800
C 18.370400 2.604780 19.997800
C 20.208000 2.936870 20.570000
C 18.823100 2.759540 19.119500
C 19.461400 3.678630 19.314000
C 20.335800 3.816430 19.565400
C 19.936700 2.627510 19.747200
C 20.937900 3.363910 19.065800
C 20.564200 2.067290 20.733900
C 19.715700 2.142390 21.323500
C 20.570500 2.523230 21.763200
C 19.616200 1.235200 21.369100
C 21.542200 1.777640 21.343500
C 20.664800 1.526920 21.793000
C 19.672200 2.813660 22.032400
C 21.818000 2.211680 22.632800
C 22.137200 1.603690 23.941200
C 21.880800 1.245860 22.646500
C 21.660100 2.357830 24.271100
C 21.119100 3.110100 24.548100
C 21.988600 3.442170 24.578400
C 22.407300 4.167840 25.111800
C 18.704700 1.068920 30.543700
C 17.032000 2.173380 29.977800
C 17.285800 1.747220 30.783100
C 18.702200 1.819990 31.119500
C 17.826900 1.002560 30.975900
C 18.679100 0.960181 31.625000
C 17.159800 6.983320 5.669440
C 18.027800 7.307300 5.343080
C 17.849700 8.090840 4.845980
C 18.609800 10.974600 7.744150
C 19.695000 10.874500 7.776930
C 18.546600 10.616300 9.495230
C 17.417700 11.223800 9.479210
C 17.606400 10.297200 9.408710
C 20.515200 11.147900 8.065820
C 19.127500 10.287800 8.263750
C 19.499500 10.956100 9.406110
C 20.073300 10.582700 8.720040
C 18.741000 8.122800 11.460300
C 17.449000 9.131820 11.055000
C 19.093900 9.009400 11.324200
C 19.671200 8.962940 10.537800
C 20.105600 9.650900 9.941890
C 18.211000 11.443000 10.803000
C 19.112400 11.110000 10.412300
C 19.169200 9.940950 9.773090
C 19.980300 11.091700 10.912500
C 20.273500 11.256200 9.951620
C 21.044500 11.489800 10.974700
C 17.157400 9.346330 11.926300
C 17.921800 8.519850 11.630200
C 18.813500 10.601700 11.769500
C 19.399100 11.343000 11.631200
C 21.215000 9.510330 15.114000
C 22.166600 9.518440 15.069500
C 21.311800 10.425400 14.745500
C 22.299800 6.802980 15.800500
C 22.311100 8.238900 15.237200
C 21.864900 8.894580 15.793800
C 19.555000 10.651800 16.882700
C 20.102000 11.404900 16.017500
C 20.481200 10.743600 16.873500
C 21.317300 9.872470 16.008800
C 21.043300 10.760900 15.921300
C 21.763800 11.076800 15.348900
C 21.069300 9.982060 16.895300
C 22.264400 10.970500 18.182800
C 17.048600 13.013800 7.360290
C 18.437400 11.893700 7.562030
C 18.019700 12.678000 7.183510
C 18.656000 14.430400 7.405400
C 18.073100 13.643100 7.156670
C 18.317200 14.477300 6.480500
C 17.679400 14.614800 7.224560
C 17.357900 13.196200 8.275700
C 19.957700 14.902500 9.097400
C 20.743700 14.827200 9.646860
C 21.664500 14.765100 9.279360
C 17.576500 12.184400 11.079600
C 18.442600 12.548300 10.521700
C 17.535800 12.156100 10.158600
C 20.100500 12.191200 11.249200
C 19.123000 13.017300 11.223200
C 19.267600 12.058400 10.791100
C 21.839100 11.833800 11.447300
C 22.007700 14.016700 9.837010
C 17.822900 12.377100 12.386200
C 18.270800 12.787000 11.689300
C 18.562900 11.749600 11.631300
C 17.115300 12.685800 11.671800
C 19.398400 12.357400 11.855900
C 21.756600 13.044800 12.853900
C 20.756700 12.454800 13.105300
C 22.046000 11.833400 12.502700
C 22.419800 12.520800 11.988500
C 21.189300 12.196200 12.279500
C 21.161700 13.768700 13.157600
C 21.192600 15.948900 13.293300
C 20.425400 12.816700 13.919600
C 21.933900 11.887600 13.531000
C 21.221800 12.390300 14.171200
C 21.373500 13.005900 14.833200
C 20.996400 14.267700 13.958800
C 20.854100 15.261300 13.890900
C 22.040000 15.652100 13.449000
C 19.772600 12.188800 15.584700
C 20.151900 13.032000 15.442100
C 19.570700 11.605100 16.828800
C 20.807800 12.373200 15.276600