950
Atoms. Timestep: 0
H 28.924000 4.285730 29.156500
H 28.863000 4.258210 29.174400
H 28.194700 3.509890 29.429700
H 28.239300 3.546640 29.394900
H 29.819700 4.771340 29.340400
H 29.756100 4.756240 29.336200
H 28.131200 2.115000 30.787400
H 28.140400 2.077730 30.824800
H 27.949100 2.752100 29.991900
H 29.224100 2.572880 31.150600
H 28.921100 2.700910 30.778100
H 27.930200 2.711770 30.033800
H 28.830300 3.045900 30.362400
H 28.948300 3.416990 30.080500
H 29.317800 3.812710 29.944700
H 29.674700 2.608010 31.428900
H 30.455500 3.231190 31.382100
H 29.701900 3.324090 30.731300
H 29.711500 3.339700 30.732900
H 29.729000 4.040170 30.033800
H 30.592700 3.633500 31.103400
H 30.199000 4.106520 30.315200
H 30.482600 3.947270 30.684600
H 31.473600 3.936400 31.428800
H 31.291900 4.564400 30.678300
H 31.263300 4.570450 30.637800
H 30.634700 4.870530 29.871900
H 30.686400 4.873330 29.897400
H 28.769000 1.777650 31.590800
H 28.736700 1.806060 31.568300
H 29.603400 1.908060 32.125400
H 29.647600 1.891930 32.126400
H 30.540700 2.389960 32.288300
H 30.499100 2.393670 32.309300
H 30.105300 2.866680 31.521100
H 31.183700 3.132760 32.070800
H 31.209100 3.138290 32.032900
H 31.473900 3.927300 31.473900
H 30.221400 24.167400 29.400700
H 30.250600 24.164900 29.390900
H 30.951400 24.590200 28.800500
H 30.977500 24.597500 28.794000
H 31.195500 25.614600 29.467900
H 31.185200 25.604700 29.472800
H 31.626000 25.352400 28.611300
H 31.642900 25.368600 28.608100
H 32.064400 26.249900 28.883800
H 32.068600 26.271400 28.882900
H 32.149100 27.042100 29.545000
H 32.140400 27.064200 29.544900
H 29.631500 24.197300 30.251000
H 29.656900 24.186700 30.238800
H 29.339900 24.672000 31.123700
H 29.355600 24.656900 31.110600
H 30.499300 25.012800 29.859300
H 30.482900 25.012200 29.867500
H 30.748000 25.860600 30.327700
H 30.744500 25.857000 30.334300
H 30.042200 25.264500 30.729000
H 30.051800 25.258800 30.719200
H 30.303800 26.109300 31.195800
H 30.300500 26.106600 31.187600
H 31.444200 26.462400 29.936300
H 31.446800 26.449600 29.939700
H 30.996700 26.708400 30.796200
H 31.006100 26.701900 30.801200
H 31.245400 27.556200 31.264600
H 31.267600 27.546700 31.268000
H 31.839100 27.534500 30.416600
H 31.857500 27.516800 30.417700
H 29.427400 25.449700 31.772600
H 29.424600 25.464100 31.784800
H 30.537600 27.123900 31.868200
H 30.518500 27.123600 31.861500
H 29.853000 26.352600 32.047400
H 29.863000 26.361600 32.057300
H 19.062400 0.980435 5.179360
H 19.939600 1.423730 5.504870
H 21.260000 1.046270 6.958970
H 20.744000 1.447820 6.156260
H 20.229300 0.892509 16.941600
H 19.534400 1.435260 17.484200
H 20.506400 0.786285 17.896600
H 19.174300 1.775660 18.393200
H 19.978900 1.227860 18.622400
H 19.245300 1.822500 19.425000
H 20.256100 1.121640 19.577400
H 19.728500 1.563220 20.303200
H 20.494500 1.067290 20.792400
H 19.185000 8.862590 12.768300
H 19.205500 8.944240 12.788100
H 20.365400 8.754390 13.181300
H 20.158500 9.071080 12.862800
H 19.339600 9.695900 12.173600
H 20.270500 9.538880 12.568400
H 22.064600 9.063530 13.313900
H 21.167500 9.301210 12.941100
H 21.132000 9.279570 12.957400
H 22.105500 9.488050 13.052000
H 19.373500 9.776560 12.195700
H 20.553200 9.848600 12.373200
H 20.022100 10.481500 11.803000
H 19.974400 10.417600 11.789000
H 21.969700 9.848030 12.701000
H 20.977700 10.870200 11.715400
H 21.921400 10.834600 11.978100
H 21.072600 10.085700 12.328200
H 21.526700 10.057100 12.467800
H 21.984100 10.838500 11.956100
H 20.919400 10.834400 11.717400
H 20.350900 7.763940 13.926200
H 20.342600 7.724520 13.936700
H 21.357400 7.732220 14.166900
H 21.344500 7.724690 14.197400
H 19.563300 8.207570 13.421500
H 19.552100 8.141020 13.413600
H 20.737300 8.502040 13.447100
H 22.312900 8.120910 14.079200
H 22.289500 8.141490 14.125800
H 21.262500 8.516710 13.554000
H 21.710800 8.710530 13.541600
H 18.347500 32.768500 5.266930
H 17.986400 31.923600 5.744120
H 19.007700 32.579800 5.993970
H 19.803800 33.173300 6.112950
H 18.591900 30.802500 7.285790
H 18.075800 31.204000 6.483080
H 19.396200 30.826600 7.937170
H 18.871900 31.797500 6.602050
H 19.532100 31.608800 7.329100
H 20.328100 32.202300 7.448070
H 19.667900 32.391000 6.721020
H 20.464000 32.984500 6.840000
H 21.349400 32.858400 7.697930
H 20.273400 31.269900 8.262690
H 20.988300 32.013600 8.175120
H 21.072700 32.824600 16.910700
H 22.321900 32.069400 18.278000
H 21.838600 32.328700 17.399900
H 21.311100 32.770200 18.125700
H 22.392900 32.116200 19.309900
H 20.783600 33.211800 18.851500
H 22.032800 32.456600 20.218900
H 21.588300 32.664000 19.080700
H 21.060700 33.105600 19.806500
H 21.337900 32.999400 20.761500
H 26.018100 2.738810 18.638400
H 26.035800 2.728920 18.581000
H 25.907700 3.291680 17.770000
H 25.918000 3.287550 17.717300
H 26.114500 4.143830 17.169600
H 26.115700 4.140610 17.215100
H 26.602900 4.271110 18.032900
H 26.605700 4.268630 18.077500
H 26.556800 3.567730 18.789100
H 26.563500 3.563660 18.738700
H 27.193300 5.798440 17.516500
H 26.586200 5.058150 17.122300
H 27.130600 5.105840 18.190600
H 27.144400 5.097540 18.228200
H 27.169900 5.813290 17.484900
H 26.572800 5.068310 17.084500
H 26.436400 2.617630 19.529200
H 26.417100 2.630160 19.587500
H 27.012500 2.983490 20.307800
H 27.051800 3.690940 19.602000
H 27.046800 3.695740 19.651400
H 26.998000 2.994840 20.363100
H 27.091200 4.398390 18.896300
H 27.095600 4.396640 18.939800
H 27.634400 5.225550 19.090500
H 27.618900 5.233120 19.054000
H 27.579500 4.525670 19.759700
H 27.585600 4.524650 19.802200
H 27.605000 3.735130 20.757300
H 27.609600 3.728460 20.708200
H 23.129500 9.658180 13.094200
H 23.079000 9.696540 13.146600
H 22.771800 10.394800 12.460800
H 22.711800 10.418100 12.501200
H 22.924400 8.863240 13.741200
H 22.961600 8.825860 13.686600
H 27.774100 6.163120 18.292100
H 27.746000 6.179150 18.263500
H 27.427500 16.481900 18.341800
H 27.400400 16.470900 18.252900
H 27.403500 16.455800 18.264000
H 26.821500 16.302700 19.161900
H 26.788500 16.282500 19.066500
H 26.827200 16.266300 19.103000
H 26.450200 16.535700 20.011600
H 26.483200 16.571900 20.102700
H 26.518800 16.526500 20.056400
H 27.624000 17.228900 18.977000
H 27.299100 17.106600 19.311900
H 27.142900 17.546700 20.196300
H 27.194000 17.555900 20.199600
H 27.348400 18.020900 20.492600
H 27.820600 17.975900 19.612200
H 27.827000 17.945000 19.530300
H 27.809600 17.930700 19.557400
H 27.653400 18.370800 20.441700
H 27.693900 18.395200 20.413300
H 27.151900 17.273900 19.857400
H 27.327100 17.105600 19.316700
H 26.561000 17.166800 20.868900
H 26.476200 17.162700 20.835100
H 26.503300 17.217200 20.912000
H 26.942400 18.015600 21.322700
H 26.876300 18.065900 21.373000
H 26.859400 17.995500 21.316200
H 27.497300 18.810900 21.326000
H 27.502400 18.890400 21.362300
H 27.560900 18.845500 21.296300
H 25.667400 31.227800 11.295000
H 26.411100 30.736300 11.574400
H 27.380600 30.492100 11.552900
H 27.352000 30.826500 11.258800
H 26.589200 31.391000 10.943200
H 27.042900 31.248100 10.992200
H 25.733100 32.155400 10.475600
H 25.735600 32.248500 10.453000
H 24.904600 31.792300 10.979400
H 24.901600 31.891400 10.951800
H 26.748300 32.118600 10.275900
H 26.073400 31.492400 11.013700
H 27.674700 31.760000 10.410100
H 26.750700 32.200400 10.254800
H 27.678300 31.691900 10.433800
H 25.182100 29.634700 12.787200
H 26.071500 29.272200 12.894000
H 26.112100 29.208000 12.945200
H 27.127300 29.171300 12.745500
H 27.086500 29.224100 12.695800
H 24.485000 31.126800 11.652300
H 25.147400 29.712600 12.738700
H 24.562000 30.427300 12.271400
H 24.586500 30.337000 12.314000
H 25.779300 30.224400 12.156500
H 25.508400 30.500200 11.962300
H 24.472000 31.224700 11.617300
H 25.441500 30.980500 11.595900
H 26.271100 29.935700 12.277800
H 26.748800 29.980200 12.135100
H 27.193000 30.098800 11.926100
H 26.430200 30.663300 11.610500
H 31.318200 6.143550 11.540200
H 31.382200 6.128440 11.513800
H 31.186800 5.412950 12.236200
H 31.115000 5.430180 12.262500
H 31.114000 5.133510 13.254400
H 31.184600 5.118050 13.228600
H 31.491800 6.059410 13.261500
H 31.546300 6.050330 13.236400
H 31.376300 5.322760 14.225200
H 31.315500 5.333030 14.250100
H 31.665400 5.975270 14.982900
H 31.710500 5.972230 14.959000
H 28.146600 6.067850 19.211600
H 28.173200 6.054470 19.241200
H 28.264400 5.509220 20.075300
H 28.283500 5.501610 20.109600
H 28.075500 4.652670 20.664500
H 28.067800 4.652950 20.623100
H 31.669200 7.082460 11.281000
H 31.718600 7.072800 11.255200
H 32.105800 7.993000 11.529400
H 32.073900 7.995340 11.554500
H 31.645200 6.555520 12.379000
H 31.594000 6.564430 12.404400
H 31.869700 6.985310 13.268700
H 32.006900 7.487800 12.386800
H 31.971800 7.490320 12.411600
H 32.269900 7.914890 13.252000
H 32.247500 7.911200 13.275800
H 31.908100 6.982610 13.244200
H 32.631700 8.847170 13.259800
H 32.440000 8.642460 12.263200
H 32.423900 8.637580 12.287200
H 32.625300 8.837100 13.283000
H 31.809300 6.477420 14.101600
H 31.767500 6.480290 14.125800
H 32.171100 7.409700 14.109400
H 32.145400 7.406190 14.132900
H 32.421100 7.827070 14.997200
H 32.434000 7.836790 14.974600
H 32.629500 8.552280 14.252200
H 32.624300 8.540430 14.274900
H 32.070100 6.888160 15.256300
H 32.097600 6.892420 15.233300
H 29.093100 18.723100 18.191700
H 29.143000 18.698700 18.279700
H 29.137900 18.734600 18.312300
H 28.764800 17.885900 17.851300
H 28.711700 17.874300 17.737900
H 28.759800 17.865900 17.798600
H 28.292700 17.930900 18.731700
H 27.960100 17.494700 18.647300
H 28.093200 17.044400 17.764400
H 28.121900 17.050500 17.788800
H 27.965800 17.490600 18.673100
H 28.138800 17.061400 17.862100
H 28.460100 18.334100 18.861000
H 28.476300 18.314700 18.918600
H 28.017100 18.722900 20.247400
H 28.489200 18.677900 19.366900
H 28.320200 18.754800 19.802900
H 28.327000 18.784300 19.744000
H 29.135300 19.363400 19.004200
H 29.157900 19.379900 19.121700
H 29.169000 19.325700 19.103200
H 28.826900 19.623700 19.957600
H 28.830700 19.578900 20.048300
H 28.819600 19.649100 20.062400
H 28.213700 19.469900 20.882500
H 28.218800 19.390500 20.862000
H 28.250600 19.434100 20.796600
H 28.350100 30.247800 11.531400
H 28.273800 30.989600 10.907000
H 28.260100 31.045300 10.877400
H 28.375400 30.199900 11.568800
H 27.920500 29.581200 12.197000
H 27.955700 29.534300 12.241700
H 6.056390 27.586900 17.582600
H 5.915870 26.713900 18.121200
H 6.115200 27.447400 20.224200
H 5.855650 26.220500 19.029400
H 5.891870 26.239000 20.063900
H 6.035610 27.175600 19.265100
H 6.014820 26.764200 20.947500
H 6.135980 27.858800 18.541700
H 6.191570 27.655700 21.443500
H 6.239570 28.605600 17.558100
H 6.416310 29.497100 18.054100
H 6.315940 28.813900 18.777500
H 6.295160 28.402500 20.459900
H 6.395530 29.085700 19.736500
H 6.215570 28.130700 19.500800
H 6.539270 30.022400 18.937800
H 6.575490 30.040800 19.972300
H 6.374740 28.674400 21.419000
H 6.515270 29.547400 20.880500
H 11.529100 5.042990 25.203000
H 11.415600 8.926530 29.469100
H 11.002500 9.677300 28.953700
H 11.359800 9.920890 28.052000
H 9.818780 10.935300 28.824400
H 10.231900 10.184500 29.339900
H 10.580700 10.581900 28.218900
H 11.471500 7.932160 30.886300
H 9.342780 9.738070 31.342500
H 10.645100 9.433710 29.855400
H 11.058300 8.682930 30.370800
H 10.287800 9.190120 30.757000
H 9.278320 10.886300 29.706100
H 9.104090 10.448100 30.627800
H 9.874600 9.940890 30.241600
H 10.709600 8.285510 31.491800
H 9.930430 8.946520 31.658700
H 15.071300 3.970090 23.685300
H 13.346400 5.369990 23.941800
H 14.090200 4.705970 23.864400
H 14.265900 5.733850 23.194600
H 14.880200 4.905410 23.284600
H 13.207600 2.779650 25.449000
H 12.334500 3.279230 25.693800
H 12.510100 4.307110 25.024000
H 11.720100 4.107670 25.603800
H 13.253900 3.643090 24.946600
H 14.787700 3.178510 24.289400
H 14.105600 2.742780 24.935000
H 14.043900 3.842530 24.366800
H 13.300200 4.506540 24.444200
H 11.812600 5.834570 24.599000
H 12.556400 5.170550 24.521600
H 12.494800 6.270300 23.953400
H 13.392700 6.233430 23.439400
H 12.186100 8.419350 29.082900
H 11.947500 9.129340 28.368200
H 12.011900 7.981150 30.004600
H 5.694860 13.973100 14.082000
H 5.710140 13.970100 14.081700
H 5.231160 14.236400 14.969400
H 5.251800 14.233000 14.972100
H 6.066940 14.784800 14.941500
H 6.087840 15.051300 15.381100
H 5.243680 14.786200 15.847100
H 5.215350 14.793500 15.841900
H 5.651670 15.495300 16.465600
H 5.687940 15.481500 16.472500
H 7.398470 14.500400 13.149700
H 7.382220 14.512800 13.153600
H 8.153760 15.171200 13.361400
H 8.176080 15.151500 13.357700
H 6.321070 14.643300 14.498400
H 6.692460 14.703800 14.165400
H 6.495870 14.067900 13.414700
H 6.482200 14.074300 13.417300
H 7.165240 14.908400 14.032400
H 6.902720 15.333200 14.913500
H 7.738490 15.881700 14.885600
H 7.776180 15.581600 14.449100
H 7.528240 15.252200 14.137500
H 6.932010 15.316500 14.915100
H 8.612220 16.400000 14.858100
H 8.574270 16.430100 14.857600
H 8.620340 15.846800 13.983100
H 8.590080 15.873000 13.985200
H 7.368140 16.565000 16.415500
H 6.465550 16.132600 16.680500
H 6.277190 15.414300 15.689600
H 7.323230 16.592200 16.409700
H 6.698780 15.724600 15.797800
H 7.112970 15.962700 15.661600
H 7.542940 15.989700 15.331800
H 6.423210 16.153700 16.673500
H 8.110570 16.693400 15.745100
H 8.153880 16.662900 15.748500
H 11.266200 16.552900 2.906050
H 11.309000 16.611000 2.935040
H 10.781600 16.913600 3.746900
H 10.813800 16.971300 3.769850
H 10.801500 17.449600 4.632450
H 10.822700 17.506100 4.656270
H 11.320400 18.017300 5.325410
H 11.333200 18.072300 5.356800
H 11.172800 22.339900 14.701400
H 10.272700 21.953200 14.560900
H 10.276000 21.912000 14.588700
H 10.832600 21.234800 15.053200
H 10.853900 21.200300 15.069800
H 11.173900 22.368200 14.685900
H 11.495300 23.932100 7.747140
H 11.485900 23.948000 7.808650
H 11.463300 23.906800 7.792670
H 11.068300 24.840700 8.000040
H 11.062400 24.856800 8.066740
H 11.055700 24.830000 8.023540
H 11.167000 25.815900 8.333320
H 11.166400 25.834700 8.390620
H 11.176100 25.813800 8.322700
H 10.195700 22.894000 14.135600
H 10.178600 22.852900 14.168000
H 10.588000 23.771100 13.920400
H 10.622400 23.805100 13.891300
H 11.328800 23.269500 14.367300
H 11.348700 23.294200 14.351100
H 11.394300 24.420500 13.912400
H 11.438200 24.442500 13.893400
H 12.175500 16.521900 2.375550
H 12.125300 16.464300 2.335210
H 13.128900 16.671400 2.187330
H 13.181300 16.727800 2.241270
H 13.214400 16.914900 9.381360
H 12.132200 16.327400 9.114970
H 12.871200 16.638400 8.483670
H 12.869800 16.623500 8.451530
H 12.150700 16.320200 9.155630
H 13.207600 16.895900 9.352540
H 11.773200 16.256600 10.083500
H 12.659300 16.712400 10.168500
H 11.889100 16.430100 11.097600
H 11.932700 16.406800 11.141900
H 12.682400 16.713400 10.203800
H 13.025600 16.989900 11.101500
H 11.807200 16.235400 10.128600
H 12.997100 16.984800 11.069500
H 12.493500 16.788400 11.924000
H 12.448800 16.801300 11.885500
H 14.007900 17.118800 2.502030
H 11.722900 17.240800 3.830310
H 12.694900 17.622900 3.962500
H 12.664200 17.568000 3.913720
H 13.375800 17.398200 3.265350
H 13.336100 17.343400 3.207880
H 12.394800 17.016200 3.124470
H 12.435200 17.072400 3.169020
H 11.754400 17.297100 3.866170
H 14.056700 17.173500 2.568200
H 13.605500 17.895300 3.997140
H 13.635500 17.948700 4.058830
H 14.567200 17.739600 3.268730
H 14.526900 17.686500 3.195000
H 14.576100 18.274500 4.155160
H 14.546800 18.222500 4.080550
H 12.014100 17.847600 4.659650
H 11.992300 17.792700 4.619570
H 12.208600 18.518000 5.683730
H 12.199500 18.464700 5.640120
H 13.214300 18.723900 5.549460
H 13.203000 18.671800 5.492240
H 12.933600 18.119900 4.702980
H 12.954600 18.173400 4.755980
H 14.062200 18.583200 4.921400
H 14.080900 18.634700 4.989960
H 13.775600 17.104700 8.292780
H 14.641900 17.535100 8.621590
H 14.621600 17.594300 8.634110
H 14.093600 17.351700 9.437570
H 14.089600 17.392800 9.456590
H 15.182500 17.975900 9.416210
H 13.788400 17.065600 8.270940
H 15.201600 17.906300 9.409520
H 13.545300 17.168200 10.253600
H 13.557600 17.191400 10.279100
H 14.964400 18.062600 11.402500
H 13.883100 17.440600 11.154600
H 13.900800 17.467900 11.176800
H 14.432800 17.669300 10.354300
H 14.431400 17.624000 10.338600
H 14.958500 18.009000 11.392100
H 15.308000 18.147300 10.429500
H 15.317500 18.079800 10.423600
H 13.302300 17.270900 12.236200
H 13.339500 17.278000 12.265300
H 14.243900 17.744400 12.074500
H 14.220900 17.712900 12.055600
H 11.900300 21.857300 15.145800
H 11.913500 21.838300 15.148300
H 11.757500 20.908700 15.482400
H 12.801500 22.272400 15.270800
H 12.810300 22.266200 15.261000
H 12.744800 21.115200 15.716000
H 11.725400 20.931400 15.480600
H 12.712000 21.124100 15.728500
H 13.551100 21.764500 15.707900
H 13.527900 21.761500 15.730600
H 12.333500 23.333500 7.642390
H 12.289900 23.291500 7.691950
H 12.323200 23.351700 7.685500
H 13.313800 23.149000 7.748370
H 13.358400 23.205400 7.713850
H 13.350100 23.227700 7.730290
H 14.260700 23.517500 7.946810
H 14.295300 23.582100 7.942380
H 14.291400 23.609300 7.931030
H 12.658200 24.173700 7.985170
H 12.681800 24.211400 7.971210
H 12.676900 24.233100 7.998880
H 12.049200 24.965000 8.150030
H 12.041100 24.943000 8.150970
H 12.046500 24.985600 8.189500
H 13.030100 25.089300 8.300030
H 13.030600 25.114400 8.312260
H 12.397500 25.842900 8.478850
H 12.400200 25.867000 8.502880
H 12.409400 25.825300 8.444190
H 13.026500 25.056000 8.278400
H 13.384300 25.995800 8.625650
H 13.378400 25.967100 8.628850
H 13.662700 24.335700 8.121200
H 13.643600 24.286800 8.112600
H 13.661000 24.361800 8.121650
H 14.877000 24.298200 8.234100
H 14.893200 24.362600 8.266740
H 14.894800 24.394100 8.233910
H 13.394900 25.938300 8.571620
H 14.012000 25.169000 8.405830
H 14.014700 25.243200 8.435030
H 14.011000 25.213500 8.450020
H 14.997400 25.282000 8.533260
H 14.998800 25.372000 8.557790
H 14.991900 25.337800 8.600020
H 11.769800 26.619500 8.693500
H 11.792300 26.594600 8.609990
H 12.701800 26.973100 8.886210
H 12.739300 26.963100 8.808430
H 12.711100 27.001100 8.894240
H 11.764900 26.596400 8.657680
H 14.564900 26.246400 8.852920
H 14.589700 26.205300 8.764130
H 14.575300 26.280800 8.815880
H 13.763200 26.820600 8.864850
H 13.738000 26.877100 8.939030
H 13.726600 26.845000 8.957670
H 12.225600 23.697400 14.480000
H 12.249900 23.709300 14.476200
H 12.966400 23.195800 14.926900
H 12.976300 23.198400 14.936000
H 12.075100 22.783300 14.811000
H 12.069600 22.767800 14.814200
H 13.863200 23.623700 15.039600
H 13.877500 23.613500 15.061000
H 12.424800 24.635300 14.141400
H 12.381600 24.627000 14.145900
H 13.317600 24.331800 14.568800
H 13.285300 24.335300 14.558500
H 13.954500 22.672600 15.486300
H 13.960500 22.682700 15.460300
H 19.859700 21.655100 3.302000
H 20.602100 22.024800 3.860900
H 19.856300 21.082600 4.164610
H 20.251700 20.861600 5.095590
H 20.798100 21.628000 4.757690
H 20.939900 21.051200 5.845490
H 21.344500 22.394400 4.419790
H 21.540500 21.997600 5.316580
H 21.736400 21.600800 6.213370
H 20.261000 22.425700 2.738910
H 21.749100 23.737500 2.994080
H 20.952500 23.187900 2.626200
H 21.890900 23.160800 4.081890
H 21.148500 22.791200 3.522990
H 22.086800 22.764000 4.978680
H 20.120300 27.044200 7.956190
H 21.092300 26.687500 7.957110
H 22.321200 25.934800 9.343960
H 18.693800 27.265700 9.340540
H 19.242400 27.255800 8.462570
H 19.856900 26.879400 9.155990
H 21.897900 26.281500 8.465060
H 21.396300 26.218900 9.596680
H 20.781800 26.595300 8.903260
H 22.248900 25.740400 10.358300
H 21.700300 25.750300 11.236300
H 18.621500 27.071300 10.354900
H 19.546400 26.787200 10.102100
H 19.044900 26.724600 11.233800
H 20.471400 26.503100 9.849410
H 20.160900 26.410800 10.795600
H 21.085900 26.126700 10.542800
H 20.822500 25.961900 11.742600
H 19.850500 26.318600 11.741700
H 22.428000 22.363000 6.100670
H 22.437200 23.927200 3.743980
H 22.832600 23.706100 4.674960
H 22.829200 23.133600 5.537570
H 26.975700 24.980800 4.510160
H 27.681100 24.233900 4.638100
H 26.527200 25.855700 4.834740
H 27.455300 25.219600 5.354580
H 26.455900 26.624100 5.524870
H 27.195400 26.041300 5.861930
H 27.415100 27.101800 7.213710
H 27.675000 26.280200 6.706350
H 26.780900 27.080300 6.395630
H 28.454600 23.815100 5.184280
H 29.088800 23.836700 6.002360
H 28.194700 24.636800 5.691640
H 29.342500 25.061300 7.563250
H 29.413700 24.292800 6.873120
H 28.414400 25.697300 7.043410
H 28.894000 25.936200 7.887830
H 28.674300 24.875700 6.536060
H 27.934800 25.458500 6.199000
H 28.188500 26.683100 7.759890
H 32.054100 18.299600 4.167720
H 32.034300 18.265100 4.200490
H 32.050000 18.238600 4.186590
H 32.490400 19.175600 4.197240
H 32.484900 19.240800 4.188750
H 32.478300 19.200400 4.197200
H 30.793000 18.364600 6.057820
H 31.402000 17.574300 4.641880
H 31.430100 17.589400 4.589930
H 31.417400 17.540300 4.615650
H 30.762100 17.267700 5.369450
H 30.780100 17.300700 5.342260
H 31.366600 18.375900 5.238680
H 31.056500 18.231400 5.582090
H 31.047400 18.198400 5.598530
H 30.750600 17.313100 5.403090
H 31.693500 18.730800 4.994820
H 31.691400 18.683900 5.007100
H 31.332700 19.129100 5.827610
H 31.332900 19.162000 5.821920
H 31.331200 19.177600 5.835480
H 31.618100 20.059800 6.056680
H 31.904700 19.189000 5.016340
H 32.614900 20.129600 4.632890
H 32.606900 20.160900 4.647390
H 32.620600 20.100000 4.644740
H 31.869300 19.990600 5.613140
H 31.969900 19.661500 5.234650
H 31.976700 19.614600 5.236170
H 31.609400 20.092700 6.061760
H 32.407500 20.803700 5.390810
H 32.405700 20.764400 5.409200
H 32.387700 20.813400 5.420740
H 30.044900 18.158200 7.010470
H 30.059000 18.163200 6.996460
H 30.047500 18.225600 7.038080
H 30.278200 17.510700 6.223110
H 30.688800 18.643700 6.419040
H 30.696000 18.662600 6.409190
H 30.254800 17.551500 6.280160
H 30.259800 17.493900 6.246020
H 30.175100 19.082700 7.457980
H 30.181000 19.083300 7.455100
H 30.184100 19.154800 7.473770
H 30.972400 19.593300 6.649030
H 30.974100 19.574400 6.648120
H 30.757600 19.166200 6.654630
H 30.628000 20.090100 7.470480
H 30.615500 20.019700 7.468630
H 30.611800 20.024500 7.476130
H 31.295800 19.979300 6.432290
H 31.235700 20.734700 7.053910
H 31.248100 20.718000 7.039570
H 31.260400 20.780900 7.029090
H 31.911700 21.042100 6.267880
H 31.885800 21.023400 6.301590
H 31.903400 20.990600 6.285760
H 10.960900 7.932660 9.530080
H 10.983100 7.995530 9.526060
H 10.637400 7.791600 10.480400
H 10.629900 7.725110 10.488800
H 10.754700 7.847370 11.507500
H 10.758500 7.784830 11.514400
H 11.560200 8.304100 11.129800
H 11.552000 8.253690 11.126300
H 11.303700 8.147900 12.332300
H 11.312400 8.095800 12.332000
H 11.699300 8.404520 8.900250
H 12.547900 8.870370 8.753810
H 12.594100 8.908990 8.770630
H 11.663000 8.351850 8.895010
H 13.378600 9.349280 9.144300
H 12.479900 8.834910 9.761370
H 12.446700 8.796460 9.745970
H 13.427700 9.373750 9.171950
H 13.037800 9.117490 11.342200
H 13.057000 9.143480 11.365100
H 11.674400 8.378180 10.139100
H 12.365700 8.760830 10.752100
H 12.345500 8.722540 10.738100
H 13.139000 9.191400 10.350000
H 13.171200 9.217560 10.374400
H 11.653200 8.327600 10.134100
H 13.976700 9.674280 9.996670
H 14.061100 9.719970 10.987400
H 13.932400 9.660260 9.961860
H 14.094000 9.730060 11.023800
H 12.251500 8.686750 11.742800
H 12.143100 8.574720 12.722500
H 13.028000 9.093240 12.581300
H 13.032000 9.117130 12.604000
H 12.137300 8.612670 12.733600
H 12.244300 8.648630 11.730300
H 13.748300 9.526120 11.978100
H 13.730100 9.512430 11.946200
H 11.063000 16.685200 20.442600
H 11.157800 16.697300 20.489700
H 10.746500 13.240200 22.165800
H 10.775500 13.250500 22.188900
H 9.470840 14.584400 21.468600
H 9.491430 14.622300 21.448000
H 11.466600 14.926000 21.365900
H 11.435300 14.939700 21.345500
H 9.920160 13.759300 21.903500
H 9.910470 13.777300 21.875100
H 10.479000 14.774200 21.406900
H 10.453100 14.762100 21.407000
H 11.106500 14.083100 21.765800
H 11.105400 14.095100 21.767200
H 9.601640 15.548600 20.998900
H 9.547890 15.504700 21.000600
H 10.839100 15.617100 21.007000
H 10.211600 16.308100 20.648100
H 10.130700 16.273700 20.625100
H 10.783000 15.606700 20.985300
H 12.186700 16.611900 20.566000
H 12.095100 16.628900 20.502000
H 11.775400 13.154800 22.242100
H 11.807500 13.194300 22.248300
H 12.721700 13.544000 22.083700
H 12.739900 13.605800 22.065800
H 12.094100 14.235000 21.724800
H 12.087600 14.272700 21.705600
H 13.331600 14.303500 21.732900
H 13.322600 14.374700 21.690300
H 12.417500 15.117400 21.283900
H 12.454200 15.077900 21.324800
H 11.826700 15.769000 20.966000
H 13.022700 16.074700 20.856700
H 11.765200 15.784300 20.923700
H 12.950400 16.120100 20.787400
H 13.399700 15.295000 21.222300
H 13.441800 15.229800 21.283800
H 18.254900 16.247200 18.778400
H 18.764500 15.353400 18.662900
H 18.911200 15.063100 19.858800
H 19.228400 14.525800 19.077200
H 19.522400 13.986100 19.910400
H 17.836100 16.967700 19.392700
H 18.107200 16.461100 20.490900
H 18.424400 15.923800 19.709300
H 19.351800 14.233000 21.887900
H 19.080800 14.739700 20.789800
H 19.567500 13.879000 20.939200
H 18.594000 15.600400 20.640300
H 17.959600 16.674900 22.203400
H 18.276800 16.137600 21.421900
H 18.763500 15.276900 21.571300
H 18.933100 14.953500 22.502300
H 18.423500 15.847300 22.617800
H 17.620500 17.321800 20.341400
H 17.665600 17.214600 21.370200
H 16.634500 20.806400 29.401200
H 15.882400 21.787900 29.485000
H 15.950400 21.798900 29.499800
H 16.704000 21.608100 28.816000
H 16.643400 21.609900 28.805900
H 16.638400 18.401000 31.205900
H 16.607900 18.395800 31.187100
H 16.671200 20.004600 30.010900
H 16.625600 20.002900 29.996500
H 16.282400 19.513000 30.790200
H 15.922000 20.410200 30.534700
H 15.964300 19.941700 30.744100
H 16.616800 19.199400 30.591800
H 15.172800 20.815800 31.058400
H 15.108500 20.789500 31.035600
H 15.390000 21.508900 30.320600
H 16.310800 20.901700 29.755400
H 15.973100 20.745200 30.148800
H 15.320600 21.487600 30.301100
H 15.893600 19.021500 31.569600
H 15.851700 19.004400 31.547100
H 15.302900 19.880600 31.491700
H 15.357200 19.905300 31.515500
H 17.060000 20.496100 29.231600
H 18.169600 19.193400 28.963500
H 18.142800 19.216300 28.957300
H 17.420400 19.599000 29.487200
H 17.985200 20.103800 28.506300
H 17.948400 20.125200 28.501300
H 17.287000 20.064000 29.248900
H 17.448800 20.987700 28.452300
H 17.399600 21.001300 28.445800
H 17.930700 18.518200 29.691900
H 17.952500 18.500300 29.701300
H 17.392000 18.210300 30.522100
H 17.368900 18.217900 30.508000
H 17.031600 19.107400 30.266500
H 17.278200 19.260500 29.844200
H 22.154300 29.081700 32.946700
H 22.137000 29.045900 32.946500
H 21.635200 29.611900 32.239500
H 21.658300 29.644400 32.233100
H 21.510600 30.545900 31.745800
H 21.486600 30.514400 31.754500
H 22.294200 30.239900 32.653600
H 22.342000 31.189800 32.344500
H 22.234200 30.727200 32.411800
H 22.302700 32.336400 31.875700
H 21.730900 31.511600 31.621300
H 21.750700 31.544500 31.615400
H 22.314200 32.372700 31.876900
H 23.601500 29.444300 1.746970
H 23.603500 29.399500 1.728020
H 22.857500 28.968200 1.154220
H 22.865500 29.008400 1.163720
H 23.279700 30.176400 1.146520
H 23.564200 30.546100 1.259210
H 23.681500 31.089900 1.212070
H 24.175300 30.224200 1.982420
H 24.165100 30.272500 2.008440
H 22.905300 29.918100 0.845102
H 24.419600 31.221500 1.849250
H 24.405100 31.271200 1.878070
H 23.612100 31.496000 0.950093
H 24.257400 32.172600 1.390790
H 24.271000 32.124000 1.364200
H 22.556100 29.995100 33.012300
H 22.957900 30.908500 33.077800
H 22.953100 30.867900 33.067700
H 23.761500 32.735400 33.208900
H 23.050200 32.808600 32.460200
H 23.000900 31.817800 32.758600
H 23.359700 31.822000 33.143400
H 23.769200 32.689900 33.189000
H 22.636100 31.640600 32.477400
H 23.048800 32.767700 32.449500
H 22.133300 22.244900 25.015500
H 22.176500 22.287300 25.101100
H 22.389300 22.400200 27.086600
H 22.022100 22.489700 26.015300
H 22.067600 22.502700 26.107900
H 22.347300 22.424000 26.996100
H 24.279800 20.596500 24.193300
H 23.461800 21.203600 24.017600
H 23.436800 21.151900 23.963600
H 24.959800 20.232700 24.919600
H 24.954200 20.237900 24.892200
H 25.279400 20.172200 25.872900
H 25.281500 20.130200 25.898300
H 22.651100 21.755200 24.264500
H 23.984200 20.971000 25.117200
H 23.965300 20.963700 25.068700
H 23.674600 21.316500 26.003100
H 23.150900 21.543100 25.104300
H 23.180700 21.564100 25.169500
H 22.686800 21.811800 24.336000
H 22.836400 21.910300 25.979700
H 23.650800 21.330900 25.944100
H 24.293800 20.625600 24.231200
H 24.478100 20.723400 25.950700
H 24.465100 20.751500 25.908500
H 25.168200 20.416900 26.872700
H 25.172600 20.345600 26.905100
H 23.021800 22.065400 27.694900
H 23.055400 22.007300 27.775000
H 22.871100 21.909600 26.055500
H 24.168500 21.068800 26.836700
H 23.336300 21.698200 26.819500
H 23.365000 21.661900 26.889100
H 24.150600 21.118800 26.783900
H 24.650400 20.906600 27.623700
H 24.662300 20.821100 27.670200
H 23.864800 21.510000 27.924700
H 23.887400 21.429300 27.988600
H 27.034800 29.644600 23.703000
H 26.735500 29.298400 22.853400
H 26.780400 29.220500 22.833800
H 27.555800 28.639500 23.198700
H 27.514300 28.711300 23.200800
H 25.774300 30.917100 23.528900
H 25.809800 30.847700 23.474400
H 27.000300 29.709400 23.725800
H 26.141300 30.028700 22.934800
H 26.098600 30.105800 22.973500
H 26.519700 30.518800 24.063500
H 26.549500 30.458200 24.023300
H 27.745700 29.311100 24.260400
H 27.774400 29.255100 24.251900
H 25.874600 31.458000 24.308300
H 27.289100 30.068700 24.572200
H 27.265100 30.120500 24.598200
H 26.784500 30.929800 24.935900
H 26.803800 30.882300 24.892500
H 27.543500 30.492800 25.441400
H 27.529900 30.531500 25.470500
H 25.849400 31.514900 24.370800
H 26.318500 31.695900 25.212900
H 26.303900 31.739100 25.273700
H 27.015900 31.529600 25.995500
H 27.022400 31.497900 25.945800
H 27.794600 30.942500 26.342900
H 27.797800 30.917000 26.310600
H 28.259700 28.441500 23.931600
H 28.226300 28.501800 23.922600
H 28.680800 28.726000 24.825500
H 28.703600 28.679500 24.836200
H 28.755900 29.323800 25.667400
H 28.768400 29.289700 25.670000
H 28.028800 29.679200 25.121100
H 28.010500 29.722100 25.132800
H 28.431500 30.135100 26.222800
H 28.436900 30.108700 26.209700
