ITEM: TIMESTEP
0
ITEM: NUMBER OF ATOMS
900
ITEM: BOX BOUNDS pp pp pp
7.3598007983716585e-01 3.3264019920151441e+01
7.3598007983716585e-01 3.3264019920151441e+01
7.3598007983716585e-01 3.3264019920151441e+01
ITEM: ATOMS id mol type x y z 
2440 0 3 3.84075 1.35119 3.15474 
6058 0 3 5.07177 5.78638 5.54096 
16113 0 3 5.09298 0.844461 6.22326 
6557 0 3 2.33859 5.02186 7.76019 
25877 0 3 2.62979 4.85461 6.30298 
9715 0 3 0.809368 4.78869 9.32484 
5846 0 3 3.11144 1.31738 10.9543 
1757 0 3 2.41267 4.69777 10.6214 
18510 0 3 4.37842 4.6556 11.2937 
3956 0 3 4.81216 1.9186 13.1741 
13329 0 3 3.03626 5.9415 12.667 
12642 0 3 1.87482 0.907691 14.0786 
17171 0 3 0.793742 1.41754 14.9309 
23429 0 3 2.83013 1.19925 13.4504 
19820 0 3 2.81569 3.20604 13.5241 
15031 0 3 5.3747 5.39005 13.775 
18151 0 3 1.08449 1.02182 16.6374 
19519 0 3 2.01209 5.84946 17.2921 
13653 0 3 5.11384 5.6485 18.2952 
2475 0 3 1.14393 1.70896 19.7011 
9704 0 3 4.37176 3.98468 19.6404 
7557 0 3 2.63716 1.46843 21.2087 
20505 0 3 4.43336 4.45114 22.6459 
2437 0 3 1.53139 4.25929 24.8611 
9318 0 3 1.49076 1.56356 26.2393 
16836 0 3 4.38611 4.07411 26.2491 
7989 0 3 1.30027 4.44801 28.7929 
10032 0 3 2.62889 5.50576 27.8705 
22987 0 3 3.57776 3.6358 31.4249 
4959 0 3 5.32809 1.43984 32.13 
6497 0 3 2.87229 4.88484 31.4644 
13538 0 3 3.77827 4.69343 31.9948 
15217 0 3 4.09825 6.14378 32.4196 
22780 0 3 3.89126 8.64336 3.76902 
10439 0 3 3.97637 11.3865 3.11136 
172 0 3 4.85079 11.0771 2.57774 
9233 0 3 3.72695 6.92259 5.12611 
4819 0 3 5.50897 6.21453 6.64727 
2500 0 3 0.832413 8.54256 7.47649 
2628 0 3 3.03628 11.3026 10.9129 
21196 0 3 2.53779 7.3393 14.4146 
20856 0 3 3.5032 10.8841 14.1732 
2491 0 3 1.32807 6.85457 18.0224 
3215 0 3 6.14894 8.70326 19.2492 
16546 0 3 1.86112 6.73834 21.5691 
23342 0 3 4.33655 7.62299 21.9944 
6263 0 3 1.88156 6.98946 23.78 
681 0 3 0.922931 7.94725 25.0583 
14714 0 3 4.19193 8.57884 25.7015 
4895 0 3 5.68975 11.3593 25.9863 
20346 0 3 3.35303 8.84395 26.8065 
16732 0 3 5.7765 8.38328 27.1937 
2171 0 3 3.15843 10.6273 28.3175 
26949 0 3 2.55403 7.27657 30.6544 
2930 0 3 5.09288 9.96686 29.6973 
26731 0 3 3.16898 12.2954 3.09034 
22678 0 3 5.60641 12.3428 4.33136 
1250 0 3 5.90865 13.7777 2.87647 
2139 0 3 4.17129 16.1924 3.50233 
20947 0 3 3.3133 12.3256 6.33366 
18763 0 3 4.30761 15.4118 8.28296 
13853 0 3 3.05729 16.8865 9.47665 
10817 0 3 6.00393 16.8197 11.1017 
3683 0 3 4.83386 13.6379 13.5366 
17732 0 3 0.957082 15.6406 13.8205 
22852 0 3 5.13665 11.9593 16.555 
23463 0 3 0.807839 16.3166 16.3161 
2170 0 3 2.80044 15.6539 16.7592 
11635 0 3 4.14625 11.9925 18.9535 
9034 0 3 2.86719 16.4355 20.0786 
14937 0 3 2.63515 12.2052 24.8335 
18253 0 3 4.11858 13.7256 26.8832 
19224 0 3 2.11731 14.2981 31.973 
7033 0 3 2.02976 15.3541 32.0121 
13235 0 3 4.184 18.6519 2.30022 
5111 0 3 4.74036 18.0365 2.87594 
23163 0 3 3.07175 20.2753 3.21628 
4860 0 3 2.61098 17.4311 5.69985 
7692 0 3 5.21341 17.4932 7.11498 
13255 0 3 1.22177 19.9915 6.16318 
9110 0 3 1.29682 17.1683 9.50367 
20826 0 3 5.40661 21.5838 8.59221 
20996 0 3 4.14015 17.3829 11.1152 
9852 0 3 2.91532 18.3418 12.4178 
24907 0 3 1.05937 19.4675 12.9633 
2078 0 3 4.88599 19.4746 12.3881 
7987 0 3 5.58871 21.5419 11.5855 
21794 0 3 3.52023 20.9986 15.1291 
9706 0 3 1.39728 17.8165 19.0076 
26616 0 3 4.95331 21.2415 20.5157 
5835 0 3 3.40042 19.4738 22.1487 
22768 0 3 0.858113 21.606 22.0761 
10648 0 3 5.55367 18.4364 25.5651 
22454 0 3 4.14358 22.1965 25.6261 
3786 0 3 4.89356 21.1037 24.6702 
20472 0 3 1.98157 20.3181 26.6749 
15675 0 3 4.16481 18.8654 27.8661 
4386 0 3 3.15036 21.1593 28.1596 
5583 0 3 5.32713 21.6588 29.7358 
20095 0 3 1.48287 17.9722 31.7338 
19469 0 3 2.5275 19.8514 32.1913 
7767 0 3 4.90327 24.1479 1.61223 
20416 0 3 3.06617 27.3122 0.738718 
4035 0 3 2.75096 23.7276 5.49241 
23798 0 3 1.43667 27.0648 5.91649 
16154 0 3 3.01269 26.3796 4.43904 
22073 0 3 5.50275 26.1296 4.60167 
22752 0 3 3.60378 25.8406 6.70924 
10689 0 3 1.4241 27.3716 9.4844 
17319 0 3 5.9911 27.5113 8.42023 
26064 0 3 3.29851 25.8731 10.7055 
21258 0 3 1.71168 26.0518 11.4983 
26857 0 3 1.84636 27.7717 12.3389 
21132 0 3 2.64694 26.5654 13.3135 
8554 0 3 4.90321 25.0712 14.6213 
704 0 3 5.01687 24.6193 15.632 
18407 0 3 2.28773 27.5479 18.0846 
20898 0 3 3.70089 24.0823 19.9277 
22769 0 3 4.41689 23.6717 19.2683 
24718 0 3 5.5693 24.5934 21.3621 
20010 0 3 3.01745 27.3365 21.5416 
584 0 3 4.09865 24.9964 23.6537 
16088 0 3 2.1 27.6933 24.862 
24929 0 3 2.79171 23.4289 27.4106 
2431 0 3 3.84259 27.3912 26.0493 
21185 0 3 3.9351 22.5138 28.0865 
1144 0 3 6.12756 24.3757 28.8029 
8040 0 3 5.10383 23.9067 30.5027 
20459 0 3 2.73965 26.3749 31.1753 
25936 0 3 4.11491 23.6658 32.3861 
1140 0 3 3.11666 24.1977 32.7647 
11088 0 3 5.8013 24.8236 32.1302 
16898 0 3 5.52673 28.0638 1.40868 
17874 0 3 4.77321 33.2001 1.83767 
1075 0 3 3.38656 29.2701 2.68588 
659 0 3 1.72819 30.8441 3.46499 
1332 0 3 3.95113 32.8351 2.5993 
26114 0 3 3.02333 32.0535 4.09996 
3716 0 3 6.07114 28.9225 4.9968 
23006 0 3 5.48122 32.7746 4.60042 
10955 0 3 5.03187 30.157 7.3922 
20928 0 3 2.5394 30.7417 8.1894 
14497 0 3 4.71003 30.9806 8.00836 
9295 0 3 2.69588 32.9183 8.52757 
8614 0 3 4.60722 31.245 11.4903 
21237 0 3 0.747725 32.0705 12.8913 
1081 0 3 1.58141 29.2059 15.1306 
24116 0 3 5.24925 28.9311 14.9187 
22044 0 3 3.75449 31.5784 14.663 
10426 0 3 4.38022 30.6582 15.7881 
17101 0 3 2.07491 32.3456 15.4072 
11938 0 3 5.06232 32.9372 15.9532 
21434 0 3 3.20241 32.283 18.306 
26005 0 3 6.00829 28.0166 20.8098 
17635 0 3 1.78954 27.9103 27.3945 
778 0 3 3.22598 28.5046 27.326 
7852 0 3 1.68435 28.9865 29.1517 
865 0 3 4.61085 28.009 28.8827 
14302 0 3 2.48512 32.044 27.8964 
19750 0 3 6.00945 32.8819 29.2049 
22158 0 3 2.50744 33.0234 30.7274 
23016 0 3 1.6387 32.3871 30.7461 
17583 0 3 10.381 2.00021 1.01036 
10920 0 3 8.21579 3.58093 1.00306 
14256 0 3 9.68848 2.5514 2.90647 
18058 0 3 7.93733 6.041 4.22155 
23935 0 3 10.0827 2.42873 7.16766 
6556 0 3 8.66282 5.59987 6.74606 
10643 0 3 7.08431 2.23822 8.11919 
14218 0 3 10.5382 1.02388 14.0931 
497 0 3 11.3297 3.15049 13.7348 
5473 0 3 10.7477 4.45423 14.5679 
4686 0 3 8.64634 4.12304 15.4836 
18985 0 3 11.5506 5.82238 15.4224 
19834 0 3 9.41854 1.43384 17.3194 
23400 0 3 9.37343 6.02455 17.8461 
188 0 3 9.47348 4.62106 17.183 
10087 0 3 8.13991 5.36966 18.8998 
22514 0 3 8.73228 1.79229 22.4872 
26048 0 3 9.63301 3.62212 22.6516 
16551 0 3 8.61593 3.86316 24.3052 
20425 0 3 7.4206 4.17726 27.2436 
22394 0 3 9.75774 1.45848 27.9549 
5256 0 3 10.454 1.2403 29.5778 
15394 0 3 7.21728 2.00635 32.7337 
15055 0 3 6.52816 7.20029 2.27656 
22371 0 3 9.65285 8.03547 3.44856 
12570 0 3 8.67576 7.32963 5.14827 
1917 0 3 6.42634 9.59403 4.96738 
7781 0 3 9.63989 7.228 7.13516 
21427 0 3 10.4145 10.9999 7.28784 
17271 0 3 10.6409 10.2029 10.7077 
9823 0 3 6.56269 7.96795 14.2472 
23072 0 3 10.2772 9.40686 13.7817 
7870 0 3 9.877 8.3671 16.1555 
10298 0 3 10.7584 10.3344 16.5669 
20829 0 3 7.99982 6.53229 18.9038 
24041 0 3 11.2246 10.3415 21.5204 
12608 0 3 11.0056 11.3895 21.9667 
13142 0 3 7.34618 9.29259 23.6216 
4864 0 3 7.95207 10.6671 22.8648 
2890 0 3 11.5482 6.27878 25.8927 
2897 0 3 11.142 9.41257 25.0129 
13440 0 3 7.01144 11.145 25.7015 
16207 0 3 10.8227 9.09395 27.2249 
5417 0 3 7.07572 9.8369 27.2376 
25322 0 3 11.5755 11.4064 27.4721 
10478 0 3 9.03703 11.2082 28.2385 
18600 0 3 10.4205 7.23882 31.1389 
8664 0 3 11.3971 7.92065 30.981 
7391 0 3 6.90084 8.68079 30.7689 
15736 0 3 9.71034 10.8089 29.7522 
4644 0 3 9.72704 8.63428 32.9345 
4451 0 3 7.46009 11.3988 32.2989 
15273 0 3 6.89199 13.0044 1.58998 
6284 0 3 10.7456 13.2907 2.44408 
8925 0 3 10.6882 12.208 2.10332 
8453 0 3 11.3737 12.1132 4.61329 
22506 0 3 6.83546 13.434 6.79639 
20250 0 3 9.15289 12.1487 9.13802 
8630 0 3 7.59382 14.734 11.0371 
13362 0 3 10.0472 14.4898 10.1433 
25162 0 3 7.89732 12.3717 11.6423 
25478 0 3 7.57939 11.6381 12.6776 
17261 0 3 8.78101 12.252 12.3949 
7683 0 3 6.91696 14.6565 13.2109 
12589 0 3 10.1393 15.3813 12.4986 
19425 0 3 10.9383 13.2174 15.1052 
15812 0 3 11.5643 14.4873 14.7353 
4253 0 3 7.15481 14.6824 15.6774 
6219 0 3 8.36757 16.9063 18.7272 
4001 0 3 11.0606 15.3168 20.437 
17529 0 3 11.4217 12.0612 23.9827 
18484 0 3 7.33555 15.3333 23.9723 
23938 0 3 8.40941 16.6516 24.4325 
992 0 3 10.5114 15.5602 25.1003 
13398 0 3 9.12637 15.5048 28.9237 
6092 0 3 10.7358 15.6416 28.9807 
18096 0 3 9.68049 15.2486 31.3925 
1153 0 3 8.7157 13.7508 32.7828 
8104 0 3 7.0394 16.9272 31.9002 
526 0 3 6.84857 15.7867 32.6505 
17615 0 3 8.81996 15.9441 32.1503 
8526 0 3 9.2308 18.2736 0.7993 
1457 0 3 11.3406 18.4289 2.3138 
15051 0 3 11.493 20.6334 5.21506 
4312 0 3 9.66391 17.0575 7.19701 
7657 0 3 6.44201 21.6292 6.32384 
1090 0 3 7.70388 20.6007 9.10212 
7630 0 3 10.3234 20.6547 8.31552 
24533 0 3 7.71293 19.9498 10.1963 
14661 0 3 10.6378 21.21 13.6129 
14723 0 3 6.23587 21.342 16.253 
16403 0 3 9.41309 18.9104 18.007 
20225 0 3 11.3164 21.4451 20.2109 
23677 0 3 10.9836 18.5279 23.7007 
25320 0 3 10.1125 17.9414 23.5886 
15398 0 3 9.00102 19.562 24.0405 
14919 0 3 9.05736 20.5789 23.6318 
4176 0 3 11.5487 19.1616 28.1996 
24285 0 3 11.1642 21.6997 28.1502 
21345 0 3 10.0485 21.5768 28.5869 
2868 0 3 8.30337 19.2606 31.446 
15973 0 3 7.56972 20.9613 31.0715 
3579 0 3 6.33859 26.0057 1.83704 
26249 0 3 8.54548 24.6536 1.56701 
22080 0 3 6.49207 24.2205 2.56446 
4868 0 3 7.3173 25.3141 3.12348 
6970 0 3 11.5356 26.4684 4.532 
20639 0 3 8.09795 27.1809 6.24548 
3193 0 3 9.26914 24.6057 9.17318 
26840 0 3 8.28318 25.0778 10.8085 
7571 0 3 7.3003 26.9432 10.6457 
24423 0 3 6.39478 26.2446 15.061 
11810 0 3 7.93906 24.4645 15.2664 
3763 0 3 8.47601 27.6582 15.8436 
25142 0 3 10.4518 26.6703 15.9597 
19163 0 3 6.34896 22.6973 19.1687 
4854 0 3 7.22846 27.7048 20.9109 
952 0 3 7.45321 22.4509 22.6622 
6757 0 3 11.5786 22.4735 25.4032 
5899 0 3 7.02666 25.3012 24.4107 
7697 0 3 11.4655 24.2562 24.7604 
8769 0 3 9.74801 22.6409 27.5846 
24982 0 3 7.61207 26.5872 27.6631 
11100 0 3 7.11055 24.0507 29.722 
2694 0 3 8.12819 24.7577 30.1786 
2176 0 3 6.86047 28.4745 3.48963 
18445 0 3 8.67572 28.2718 6.02364 
12010 0 3 10.4872 29.8001 4.87505 
19301 0 3 8.54557 32.7326 6.65926 
16815 0 3 8.24712 30.8783 8.75727 
19128 0 3 7.19942 32.124 9.47766 
2950 0 3 11.1416 32.6005 8.0639 
18161 0 3 10.5269 28.767 12.1277 
15470 0 3 11.0235 31.3325 13.0559 
22549 0 3 6.38353 30.185 14.972 
5460 0 3 8.61099 30.7777 14.3321 
4047 0 3 8.70656 32.4585 13.5697 
21112 0 3 10.1614 29.7249 18.8019 
6378 0 3 8.33788 28.7057 23.8628 
3505 0 3 8.21153 29.9164 25.7952 
22409 0 3 10.4505 31.0031 27.4116 
2854 0 3 10.7637 30.3686 26.3682 
5330 0 3 6.53527 32.7516 28.2971 
3785 0 3 10.8179 33.0335 31.1587 
17532 0 3 6.70233 28.2195 31.5363 
13174 0 3 14.9557 0.799144 2.19401 
4909 0 3 13.5076 5.09173 0.78556 
502 0 3 11.7667 5.70032 2.57929 
11801 0 3 16.3054 6.0563 5.78479 
14481 0 3 13.6939 1.08656 7.52933 
7311 0 3 12.7385 1.42731 11.0374 
24933 0 3 13.7501 1.16957 11.107 
20790 0 3 13.5994 1.39426 10.0537 
10901 0 3 15.0044 2.37531 11.6343 
12544 0 3 14.3403 4.68595 12.1955 
2686 0 3 15.3123 5.91791 13.1329 
2936 0 3 16.1979 5.06192 16.5216 
18005 0 3 11.9783 0.853954 18.3407 
19500 0 3 13.2695 3.9167 17.853 
22264 0 3 16.5099 3.20404 17.7464 
16027 0 3 15.4339 4.25145 19.4944 
17618 0 3 13.7439 3.55929 20.83 
16277 0 3 16.9139 5.60167 21.5223 
13095 0 3 12.2723 1.67834 27.1758 
3687 0 3 16.1479 1.36926 26.9738 
22440 0 3 15.2987 5.97232 27.1412 
6191 0 3 15.9033 2.10089 28.776 
18900 0 3 12.5371 4.76803 28.5416 
19149 0 3 11.7466 3.96222 30.7811 
14577 0 3 16.9487 3.09059 31.4303 
20240 0 3 15.2284 9.89293 1.65082 
6812 0 3 16.7561 6.15945 2.78679 
10207 0 3 13.1447 8.67221 3.47844 
13693 0 3 12.1418 10.928 2.99522 
7576 0 3 16.9467 10.2 2.84066 
25607 0 3 16.8915 9.87793 3.85642 
19181 0 3 12.216 9.89247 4.81395 
15715 0 3 16.6718 7.03061 6.40535 
11943 0 3 13.0283 10.3966 7.80189 
21337 0 3 14.6553 6.84571 8.50932 
21303 0 3 14.951 7.147 10.3625 
18012 0 3 14.8514 7.29755 11.5805 
8884 0 3 16.7005 6.83365 14.1979 
16028 0 3 11.9852 8.79658 14.8442 
19036 0 3 12.056 7.83371 15.4665 
26244 0 3 16.2554 9.35384 18.0376 
17895 0 3 15.4402 8.03304 19.0266 
666 0 3 14.4393 10.8416 21.764 
3345 0 3 15.5984 10.4893 24.4903 
6277 0 3 12.0655 7.85123 28.2043 
3989 0 3 15.3023 6.44203 29.3445 
16867 0 3 14.1905 8.58178 28.3384 
3293 0 3 12.7615 9.5032 30.7213 
6204 0 3 13.1122 6.19666 32.6103 
10613 0 3 12.334 15.5671 1.98626 
23344 0 3 11.8459 15.9201 3.93923 
21853 0 3 13.126 16.8297 3.6669 
19847 0 3 14.5504 12.4248 5.65105 
7298 0 3 13.7275 14.7492 4.92815 
13258 0 3 12.8312 14.5387 6.23569 
6827 0 3 13.0884 15.6912 6.48255 
19812 0 3 14.893 16.3337 8.53525 
13964 0 3 16.5723 12.2034 10.2154 
9549 0 3 15.195 11.7325 11.0002 
6572 0 3 13.4117 15.0332 10.5139 
22157 0 3 12.4367 16.3769 11.2545 
16402 0 3 15.1516 16.4384 10.378 
26927 0 3 13.2324 11.809 12.9875 
22012 0 3 13.4557 16.8375 14.5649 
25123 0 3 16.3098 15.4277 14.2883 
25762 0 3 13.0071 15.4465 16.7253 
26111 0 3 15.1592 15.3863 16.0765 
7927 0 3 16.4993 11.9112 17.9729 
13290 0 3 12.4655 14.1881 18.1296 
25224 0 3 15.8465 12.821 21.2899 
17896 0 3 11.597 12.0552 22.848 
2445 0 3 12.8359 14.4417 22.7459 
19928 0 3 12.6639 16.2244 25.6557 
7773 0 3 13.9801 12.1572 26.0448 
12648 0 3 15.6203 15.2557 27.234 
20282 0 3 16.6167 15.3091 27.8005 
18446 0 3 15.7981 12.9285 28.7771 
24532 0 3 14.8129 11.6119 30.0046 
13754 0 3 12.6539 14.6962 30.5135 
21850 0 3 15.3543 16.7431 29.8405 
651 0 3 15.3845 12.291 32.877 
20919 0 3 14.3285 14.7048 33.0132 
23952 0 3 15.6306 17.4037 4.24427 
26047 0 3 14.2699 19.4344 4.22234 
17662 0 3 14.7182 17.5654 5.77657 
18101 0 3 16.3935 18.1272 9.3659 
17905 0 3 13.0246 18.9719 9.15954 
25597 0 3 12.0543 19.0885 8.50162 
12018 0 3 15.1255 19.1281 11.4304 
7503 0 3 12.8235 18.7091 12.9289 
6268 0 3 15.5421 17.8721 14.2906 
535 0 3 13.2324 19.9828 13.7826 
9414 0 3 15.7814 19.5731 15.6988 
16949 0 3 15.6152 20.4529 18.4041 
11680 0 3 12.4308 21.0077 20.1773 
15588 0 3 15.9218 21.4696 20.5235 
20458 0 3 11.6335 19.0189 21.3593 
1 0 3 14.5851 19.2765 20.9565 
23726 0 3 14.7436 18.8731 22.507 
5584 0 3 12.1374 21.5272 23.4676 
26632 0 3 13.6381 19.0086 24.3925 
7741 0 3 13.8968 21.9194 26.4172 
9168 0 3 13.4387 18.0958 28.533 
9049 0 3 15.7311 21.1363 28.9859 
13656 0 3 13.5629 20.5014 30.4645 
24017 0 3 15.5761 21.896 31.0012 
8249 0 3 14.6134 18.0305 32.6832 
16336 0 3 12.8826 19.6452 31.4988 
22145 0 3 15.4637 22.8142 1.89525 
10607 0 3 14.982 26.1931 2.67442 
8543 0 3 14.2554 27.0142 5.18826 
24103 0 3 16.274 23.0529 8.10426 
4855 0 3 14.4073 23.0962 16.3013 
6821 0 3 15.2037 25.4318 18.6374 
1763 0 3 15.1886 24.811 20.26 
26663 0 3 15.3916 25.7951 21.3473 
689 0 3 11.7666 26.7922 20.7253 
13521 0 3 13.633 24.0353 22.9453 
7239 0 3 15.883 25.3518 23.1695 
11898 0 3 11.5813 22.7229 28.8236 
16633 0 3 14.8133 26.5989 29.7263 
7531 0 3 16.2454 26.4083 29.8246 
14550 0 3 15.6556 24.8972 32.2316 
20008 0 3 16.501 27.5883 31.9811 
11693 0 3 16.0975 29.1187 2.26957 
2294 0 3 16.2964 28.5279 4.32321 
16854 0 3 13.4864 29.2005 5.69619 
5053 0 3 13.4785 32.6485 5.66679 
1363 0 3 11.5802 31.1061 9.40866 
990 0 3 16.6501 30.0558 11.5524 
12664 0 3 13.243 29.9659 14.3336 
4345 0 3 14.4043 30.4363 13.9321 
3768 0 3 14.2506 29.6517 16.9744 
17631 0 3 13.5974 32.3955 15.4168 
1143 0 3 13.9718 32.5173 17.3175 
5960 0 3 14.1826 28.2071 19.5182 
12821 0 3 12.907 31.0742 20.3739 
20751 0 3 15.6507 31.7212 20.1334 
16742 0 3 12.1953 31.2839 22.3685 
16051 0 3 12.3327 29.5142 22.8983 
19228 0 3 12.2679 30.5666 23.2661 
25534 0 3 16.3665 30.8026 25.1235 
10191 0 3 12.9756 32.1611 25.6895 
5502 0 3 16.9811 30.267 26.3348 
4256 0 3 11.9402 29.2931 29.8865 
17498 0 3 16.1005 31.3697 32.1932 
10118 0 3 18.237 2.99902 2.61768 
4026 0 3 21.3691 5.03895 5.88398 
14740 0 3 21.6541 1.04078 11.3033 
6822 0 3 20.3313 2.63687 12.6204 
582 0 3 20.7052 3.90889 12.403 
21705 0 3 21.3989 1.79645 14.5506 
21403 0 3 17.0139 5.39295 13.4703 
24107 0 3 17.0789 1.24735 18.2279 
6550 0 3 21.0802 0.935746 17.5028 
14827 0 3 18.6477 3.84984 18.2337 
4491 0 3 19.8575 4.93756 20.3136 
7915 0 3 21.8339 5.55824 20.0546 
4866 0 3 17.5689 5.33623 23.1952 
19420 0 3 17.0151 3.34308 24.2784 
26611 0 3 18.8282 3.75114 24.9724 
9103 0 3 18.2467 4.24906 27.7553 
1874 0 3 21.3227 4.08864 26.0445 
13330 0 3 17.068 4.25334 29.5073 
7830 0 3 19.007 4.62496 28.8571 
26660 0 3 20.7856 5.27997 28.4825 
17681 0 3 21.926 2.16089 30.7831 
6360 0 3 17.577 7.84109 1.23034 
24612 0 3 20.8142 9.00343 2.31063 
19848 0 3 17.7573 9.05653 4.10782 
4326 0 3 22.1215 7.93843 4.58827 
16912 0 3 20.7632 8.69859 6.04721 
20818 0 3 22.4059 9.63581 7.7487 
20616 0 3 22.0379 11.0788 6.70035 
24546 0 3 21.7743 8.19961 8.44245 
5851 0 3 19.2305 9.97534 12.7896 
22893 0 3 18.8544 6.59774 15.0514 
4899 0 3 19.8576 9.46366 14.7476 
22751 0 3 17.6836 9.62789 15.4254 
7266 0 3 17.4577 10.3941 17.0562 
4770 0 3 18.9259 10.906 20.0178 
9020 0 3 21.0394 11.1616 19.8974 
3338 0 3 22.3639 11.4382 19.284 
25892 0 3 22.2149 9.55798 20.7071 
18098 0 3 22.0103 8.81661 21.5018 
4906 0 3 18.6907 11.4363 22.1115 
12075 0 3 17.2248 8.76138 23.8863 
3775 0 3 21.8271 9.2896 23.4194 
10497 0 3 18.6099 8.50299 26.0369 
23772 0 3 18.3171 9.49756 26.3289 
4640 0 3 20.3468 10.4429 26.4642 
13891 0 3 19.0431 10.9124 27.2352 
21486 0 3 18.9035 7.37866 29.4942 
23934 0 3 17.0633 8.41459 28.4879 
25231 0 3 20.1377 8.44697 27.9964 
1654 0 3 18.523 10.1766 28.5254 
19410 0 3 17.5125 8.02375 31.6836 
15356 0 3 19.4339 8.07807 32.7067 
17791 0 3 19.1416 10.7608 33.0716 
1247 0 3 17.665 12.2533 1.12131 
13181 0 3 18.9382 13.6576 0.744715 
10415 0 3 19.2121 14.8075 3.15301 
2921 0 3 17.9855 13.9473 5.4273 
24098 0 3 20.0742 16.9776 4.61948 
11004 0 3 21.5528 12.5833 9.60314 
22606 0 3 22.0293 14.545 10.2153 
25891 0 3 19.4289 16.3907 9.80018 
9791 0 3 18.9897 15.2129 14.6686 
15821 0 3 18.0424 12.8269 16.0165 
2937 0 3 20.0075 12.5803 16.0542 
8558 0 3 21.7738 16.1474 16.8556 
18974 0 3 21.9064 16.5936 15.5548 
14130 0 3 17.0517 13.3756 19.5911 
10924 0 3 18.3024 15.849 19.1121 
7853 0 3 20.9541 15.3252 19.604 
10320 0 3 18.7529 12.5444 21.8579 
1979 0 3 17.5841 12.9118 23.5709 
25894 0 3 20.8571 16.2417 23.233 
9102 0 3 20.9041 12.5881 25.2951 
12619 0 3 19.2148 14.8511 25.9086 
19576 0 3 18.6065 16.5474 26.6592 
22562 0 3 21.1396 12.0651 31.2432 
10567 0 3 17.1466 15.8882 30.5642 
9341 0 3 20.7904 18.491 2.02699 
7206 0 3 18.9614 19.9309 1.52452 
5995 0 3 17.0897 21.3224 11.0425 
7527 0 3 21.1972 20.1732 13.0652 
14090 0 3 19.1831 19.4546 15.1652 
15717 0 3 17.0604 21.7727 16.1643 
21737 0 3 18.7584 17.7579 20.0465 
4859 0 3 20.6471 17.8078 20.5714 
24187 0 3 21.6907 18.9472 19.7753 
6435 0 3 17.234 18.5536 21.5917 
26766 0 3 18.7061 18.1075 21.3052 
7242 0 3 17.5538 19.8922 23.6821 
4858 0 3 22.1313 18.5215 31.046 
5525 0 3 20.1229 20.9378 30.2863 
19864 0 3 20.0204 22.3003 30.3822 
1577 0 3 21.33 19.6854 31.504 
8689 0 3 20.8588 21.5033 32.3365 
11639 0 3 21.6317 24.1874 2.84495 
24888 0 3 19.7885 25.2425 4.4243 
15362 0 3 17.3506 23.6242 7.27465 
6227 0 3 20.497 27.402 9.58068 
13261 0 3 19.4195 27.7514 9.48317 
7154 0 3 19.8987 24.5947 10.8869 
1266 0 3 22.3598 24.1137 14.7848 
18207 0 3 21.6157 26.9191 19.4573 
10222 0 3 17.3784 25.2031 21.9806 
19585 0 3 21.1988 26.6778 21.1891 
4715 0 3 20.0491 26.2002 25.8468 
2548 0 3 21.886 27.6186 24.9994 
2578 0 3 22.1438 26.5988 25.4559 
13748 0 3 17.5362 23.9706 26.5392 
12493 0 3 19.3802 27.1681 29.2661 
1767 0 3 22.1062 25.3296 30.3768 
7687 0 3 21.8818 23.5553 31.5121 
1348 0 3 21.1238 23.2637 32.3437 
10038 0 3 18.6068 24.2676 32.7758 
7019 0 3 19.5283 29.1262 4.25567 
3414 0 3 17.0826 31.279 2.68037 
10700 0 3 21.9876 31.0411 4.33367 
9566 0 3 19.3681 32.2687 4.30867 
4181 0 3 21.5824 28.8989 6.44542 
25589 0 3 20.7527 28.6247 10.5441 
11626 0 3 22.122 28.6417 11.5306 
5203 0 3 17.2432 29.761 10.0697 
26598 0 3 18.3349 31.2478 11.2886 
18352 0 3 20.1654 30.8814 13.2501 
2914 0 3 19.2011 31.2024 13.0905 
9789 0 3 19.3949 30.6052 13.9725 
21412 0 3 20.617 31.7156 17.1176 
23689 0 3 18.1865 31.9235 18.9001 
19369 0 3 21.2526 28.0529 22.3252 
332 0 3 17.5242 30.7081 22.2185 
2729 0 3 17.1972 32.4196 21.7486 
9630 0 3 19.1481 33.1657 22.233 
26258 0 3 17.6848 32.9675 25.2191 
20155 0 3 19.9083 32.9558 25.6384 
4806 0 3 20.6146 28.0263 26.2877 
24535 0 3 17.9598 33.0744 27.3364 
17632 0 3 19.155 29.2194 29.3447 
229 0 3 22.4097 28.6376 28.3151 
26051 0 3 18.7058 32.7089 29.443 
3602 0 3 20.1507 31.959 27.9449 
9330 0 3 19.1705 28.1965 32.2399 
4466 0 3 19.0336 28.6169 33.2246 
22263 0 3 24.2141 3.01539 1.61002 
24997 0 3 23.3761 5.36623 2.18764 
13701 0 3 23.8069 0.853436 3.86891 
21702 0 3 27.6982 4.02001 4.03864 
8537 0 3 22.7729 6.13657 6.18416 
2705 0 3 23.7039 1.73557 8.38369 
13445 0 3 23.15 3.59665 8.95019 
11842 0 3 26.8537 2.7105 8.80785 
4694 0 3 22.9262 5.4248 8.0043 
21480 0 3 26.6117 4.95623 8.02216 
2878 0 3 25.8997 1.88152 16.1503 
9099 0 3 27.0594 3.5599 16.2355 
10317 0 3 27.4953 4.85403 16.6844 
13441 0 3 25.7372 5.94578 18.1569 
3735 0 3 27.3955 3.74183 21.1929 
15499 0 3 26.5259 3.22651 21.7022 
8460 0 3 22.565 5.91797 20.8378 
19708 0 3 25.0686 1.97393 24.0678 
15580 0 3 22.7225 3.27905 23.9092 
8988 0 3 26.9141 5.31763 23.4426 
17321 0 3 26.8448 5.85086 22.4736 
4418 0 3 23.1868 1.51103 24.8085 
22542 0 3 25.3102 1.88834 26.095 
7454 0 3 24.9244 4.32506 26.7946 
5189 0 3 23.9993 3.2547 28.0635 
12805 0 3 25.262 5.95907 28.093 
4367 0 3 27.7211 6.02511 28.0961 
18623 0 3 26.1341 2.09698 31.059 
7156 0 3 26.0882 5.24786 30.6331 
20506 0 3 23.8258 2.34897 32.3663 
4468 0 3 23.2968 1.39349 31.9663 
2956 0 3 26.4227 1.75511 33.0457 
13844 0 3 25.1183 7.80361 1.99729 
1028 0 3 25.2768 7.70118 3.9175 
15180 0 3 23.4497 9.28932 7.93154 
18150 0 3 25.9921 8.9882 6.99955 
2473 0 3 25.3014 9.78208 7.23513 
14214 0 3 26.1323 10.6545 6.18798 
23871 0 3 23.7595 7.49152 8.74495 
19464 0 3 25.0308 9.42729 9.02521 
24180 0 3 25.1906 11.4544 9.51435 
22390 0 3 22.5725 7.79532 9.78658 
7185 0 3 23.2549 11.5476 11.4561 
23690 0 3 23.9078 7.81494 13.7107 
21459 0 3 26.4223 8.07181 13.474 
7510 0 3 25.3115 8.71685 15.3295 
15849 0 3 23.4158 10.8667 15.8504 
26605 0 3 23.2938 8.35269 17.0245 
955 0 3 24.8829 10.3442 17.0178 
14910 0 3 25.4429 7.02315 21.1113 
22143 0 3 23.2091 6.83115 23.7239 
1420 0 3 23.5036 10.8088 23.3368 
8595 0 3 23.4155 7.38683 25.7266 
20177 0 3 25.8058 9.26153 25.2034 
7284 0 3 24.7149 9.41351 29.2982 
12944 0 3 26.3114 6.44321 33.1704 
4092 0 3 26.5654 16.1596 1.98283 
23486 0 3 26.6624 11.7407 3.92771 
10814 0 3 23.6435 15.232 3.93829 
12841 0 3 23.346 13.6532 5.09258 
5432 0 3 27.3517 14.9024 5.64197 
6740 0 3 22.9816 15.9453 4.41514 
13051 0 3 23.1769 13.1634 7.41261 
25621 0 3 27.3851 13.9934 7.98567 
4893 0 3 27.2044 14.5884 10.3565 
19704 0 3 22.6867 16.4951 13.5341 
16668 0 3 22.6679 13.5477 17.2247 
21309 0 3 26.1352 11.7431 21.0049 
3742 0 3 22.5986 16.306 23.488 
12536 0 3 26.9445 15.8554 24.0467 
15693 0 3 27.0356 13.0624 27.7326 
7502 0 3 27.0381 12.8509 30.6219 
14741 0 3 25.0596 11.8985 32.492 
4245 0 3 25.8742 14.7812 32.6856 
382 0 3 24.9114 14.4841 32.3285 
24301 0 3 22.7357 21.8832 1.34253 
26055 0 3 23.017 18.8106 3.53831 
19449 0 3 24.9367 19.1386 3.92416 
379 0 3 26.1245 22.3069 3.71618 
8217 0 3 24.7927 19.1 5.55628 
19683 0 3 24.8578 20.9404 9.06958 
26374 0 3 26.1852 21.2724 9.47015 
1761 0 3 23.5819 18.3016 11.0648 
11892 0 3 24.4888 18.9446 10.3085 
26935 0 3 25.6404 22.3219 10.4217 
13742 0 3 23.567 20.3903 12.7297 
3987 0 3 26.3613 20.1808 14.6199 
3449 0 3 26.5037 18.4173 16.1942 
19975 0 3 24.4871 21.9749 20.6756 
5897 0 3 25.5274 20.0909 25.6341 
7436 0 3 24.2625 21.4717 24.7235 
21961 0 3 27.7182 20.8856 24.7456 
21305 0 3 23.7785 17.1711 27.6975 
24921 0 3 27.2982 18.7047 29.4269 
13847 0 3 26.7549 20.6002 28.4426 
19920 0 3 24.955 21.8504 29.1024 
9519 0 3 26.067 19.8153 31.4466 
13763 0 3 27.4075 21.5245 30.3397 
24442 0 3 22.7577 27.7953 1.69888 
6305 0 3 27.1268 22.5535 3.29341 
3218 0 3 23.8691 24.4852 3.97845 
15901 0 3 23.5626 27.5303 3.16697 
18737 0 3 23.7689 23.1823 5.27565 
12282 0 3 25.3631 24.8566 9.33805 
15878 0 3 27.4359 27.5629 9.75475 
22677 0 3 24.9716 23.8121 9.87102 
11953 0 3 24.1304 24.7252 10.0453 
20927 0 3 22.5081 27.3196 10.7319 
21777 0 3 22.5126 26.6264 11.5744 
17568 0 3 25.7936 27.477 11.2278 
25219 0 3 24.0067 23.3893 12.1851 
23503 0 3 26.1759 22.559 15.4934 
20756 0 3 24.3563 25.0901 16.3447 
19846 0 3 27.0909 26.2981 16.1481 
6422 0 3 24.3599 22.4748 17.9249 
6387 0 3 26.5249 27.4533 18.6413 
3266 0 3 23.2551 24.5691 20.0157 
22704 0 3 24.2167 24.5785 20.6097 
14242 0 3 23.8691 23.6436 21.4674 
1721 0 3 27.7858 24.0631 22.9247 
14274 0 3 25.929 26.8249 23.3876 
7155 0 3 26.3091 22.932 26.7111 
9421 0 3 26.9613 24.4677 27.9786 
11684 0 3 25.5394 26.0238 31.0104 
8068 0 3 26.9453 24.6204 33.0565 
17342 0 3 27.7676 24.8382 31.631 
22681 0 3 25.7154 32.3746 3.01156 
3371 0 3 27.0279 30.5785 6.1441 
5681 0 3 26.7342 29.4657 6.98196 
14253 0 3 25.1039 31.3638 7.78793 
12976 0 3 25.1663 29.0671 11.0731 
11012 0 3 24.8453 32.7446 10.303 
15045 0 3 26.9665 33.1996 10.7079 
22161 0 3 24.4127 29.5055 12.3943 
11952 0 3 27.2819 28.7018 11.6443 
17248 0 3 25.9544 33.0277 12.3775 
15501 0 3 23.6248 32.8743 14.9673 
26601 0 3 24.1901 28.7171 16.2124 
1242 0 3 27.0864 28.0535 15.3777 
14307 0 3 26.9451 32.1342 15.8648 
5504 0 3 23.2944 29.4133 19.8646 
20676 0 3 23.1946 32.6017 20.3595 
15816 0 3 25.0081 31.0504 21.2171 
24939 0 3 23.7901 32.9582 21.4415 
6193 0 3 23.8375 28.6028 22.936 
15207 0 3 24.0017 33.156 23.2288 
24641 0 3 23.661 32.9635 24.472 
9005 0 3 23.661 29.675 27.0564 
4688 0 3 24.4146 31.2342 27.6643 
9424 0 3 24.1128 29.8158 28.1027 
550 0 3 25.0447 30.7197 32.6418 
320 0 3 25.7085 31.4704 31.8812 
17876 0 3 28.4162 6.06921 1.79991 
6806 0 3 31.9292 4.89094 3.21602 
26764 0 3 28.8422 4.89002 5.81061 
14982 0 3 31.0214 2.01508 6.90294 
17997 0 3 31.0124 2.91507 7.60249 
23682 0 3 27.9743 3.47539 7.98514 
386 0 3 30.609 3.28487 9.43516 
16416 0 3 30.2383 5.77573 9.52279 
21755 0 3 31.1805 3.95456 11.9301 
26850 0 3 31.7155 5.68866 12.2709 
26228 0 3 28.8781 2.53351 15.1599 
13141 0 3 30.4913 2.402 14.7862 
5340 0 3 30.7938 2.92414 13.6275 
17879 0 3 32.2591 4.6108 14.6589 
4635 0 3 29.6344 2.41108 18.4194 
8049 0 3 28.1644 0.989293 19.4847 
16683 0 3 31.0963 4.15262 24.7569 
19457 0 3 33.1265 4.47194 24.9473 
12625 0 3 30.3541 2.17122 26.7008 
12612 0 3 31.4542 3.00598 29.6283 
8386 0 3 32.088 3.15988 30.5478 
17547 0 3 31.5839 1.68661 32.3373 
14571 0 3 28.9688 4.22949 33.0431 
4453 0 3 28.4511 9.52028 1.05304 
22719 0 3 32.049 8.64011 1.3637 
8403 0 3 29.705 6.3556 5.77314 
24517 0 3 29.0734 10.0944 5.47064 
26621 0 3 32.8196 6.79603 8.71944 
21 0 3 28.6699 6.29811 10.855 
25528 0 3 32.518 6.47223 11.2034 
17229 0 3 29.1651 8.39587 10.2555 
3997 0 3 28.8806 9.93063 11.3507 
18138 0 3 28.3151 6.47677 12.2166 
1707 0 3 28.1227 9.25529 13.2574 
10823 0 3 32.6025 10.9071 12.5846 
10160 0 3 28.969 6.74996 14.5726 
19978 0 3 32.8721 8.87585 13.8813 
24049 0 3 28.0901 9.81969 16.3335 
12342 0 3 30.7303 6.77222 18.1027 
24091 0 3 30.0324 6.39416 20.0541 
8202 0 3 31.504 11.5459 19.8404 
11865 0 3 31.7444 9.15052 21.2244 
18546 0 3 29.9659 6.47093 23.6126 
16197 0 3 31.6703 9.18328 24.1556 
7842 0 3 29.5709 9.77435 22.9761 
11102 0 3 28.5323 6.5892 29.5915 
10628 0 3 32.266 6.42735 31.0365 
8098 0 3 27.858 8.00852 32.8887 
8278 0 3 31.0654 9.80045 32.6429 
5516 0 3 32.3744 14.746 1.88164 
26119 0 3 27.8536 11.712 2.60805 
11683 0 3 29.9633 13.0909 3.70946 
16206 0 3 32.2263 14.8582 2.89808 
13268 0 3 28.4933 15.4543 2.7162 
5316 0 3 30.2845 15.4242 5.58663 
22699 0 3 31.5406 15.5897 5.34607 
7833 0 3 32.7351 16.1759 5.63094 
3740 0 3 30.7172 14.2965 7.33729 
8793 0 3 31.2195 13.9455 6.50995 
24479 0 3 28.6655 15.2042 6.4296 
13630 0 3 29.6396 14.0946 8.25833 
16504 0 3 32.1822 16.0375 8.60502 
3985 0 3 27.8821 11.714 10.3515 
14400 0 3 33.1472 12.5184 9.95989 
11138 0 3 27.9526 13.4974 9.85583 
261 0 3 32.4236 14.5583 11.0935 
20179 0 3 32.5608 14.3936 13.3057 
11443 0 3 30.7753 13.7856 13.5804 
5554 0 3 33.1788 15.9542 14.8588 
3812 0 3 33.2484 14.2576 18.0989 
24419 0 3 33.0222 13.5212 19.5312 
25201 0 3 31.1372 16.9243 20.0891 
17225 0 3 30.2982 13.4733 23.8815 
8513 0 3 31.5868 11.8148 24.4371 
23788 0 3 29.7893 16.9583 24.5845 
3251 0 3 29.0196 12.7 27.6069 
14907 0 3 28.9581 16.5722 26.8107 
12214 0 3 31.5043 14.8551 28.1063 
11959 0 3 33.0219 15.5321 28.1869 
10930 0 3 27.9775 15.4373 29.8014 
6866 0 3 30.6021 13.3973 31.5596 
4321 0 3 28.492 18.7591 1.01563 
14285 0 3 30.399 18.9621 1.85618 
720 0 3 31.7135 21.4792 1.25114 
20448 0 3 32.4099 17.7601 3.91516 
23069 0 3 30.5435 19.2588 2.83981 
5837 0 3 29.61 17.2887 5.24485 
21379 0 3 32.079 17.0075 8.04731 
8757 0 3 29.4577 20.9282 9.05046 
23813 0 3 30.8498 19.149 13.3016 
22388 0 3 32.1033 20.3505 11.5837 
215 0 3 28.6049 21.3093 13.8443 
4425 0 3 28.4608 17.8615 15.6651 
17575 0 3 28.7235 17.9306 18.3343 
17746 0 3 32.7709 22.2955 18.6999 
26104 0 3 29.6921 19.3146 25.0246 
2714 0 3 32.9115 17.7401 26.2168 
17658 0 3 31.4763 19.0183 27.7069 
21310 0 3 29.7459 17.4782 30.5324 
24762 0 3 32.9117 22.1639 30.8179 
18969 0 3 30.7065 17.2374 32.9564 
23308 0 3 30.9963 26.7901 2.26294 
24769 0 3 30.3316 22.7977 6.6069 
25515 0 3 32.4839 23.3101 8.10831 
12351 0 3 28.8632 24.7582 9.58354 
12798 0 3 32.5358 25.5801 8.38709 
2763 0 3 30.173 23.6828 10.7903 
21795 0 3 27.9623 24.7696 12.0791 
12956 0 3 31.2987 27.5487 11.6882 
9433 0 3 32.3684 26.7836 13.3485 
17067 0 3 29.0621 24.5194 13.8729 
23709 0 3 29.081 26.0199 15.9036 
23411 0 3 27.9594 24.4759 15.4374 
993 0 3 30.7611 23.1853 18.1752 
22217 0 3 28.9771 23.7583 19.1743 
21465 0 3 29.4006 24.9255 19.917 
4972 0 3 30.288 25.8319 19.424 
10258 0 3 33.1928 27.3918 19.1079 
21212 0 3 33.1926 26.641 19.8363 
22031 0 3 28.5746 23.6656 21.7568 
1566 0 3 28.322 23.1724 20.8306 