LAMMPS (3 Mar 2020)
OMP_NUM_THREADS environment is not set. Defaulting to 1 thread. (src/comm.cpp:94)
  using 1 OpenMP thread(s) per MPI task
Reading restart file ...
  restart file = 3 Mar 2020, LAMMPS = 3 Mar 2020
  restoring atom style full from restart
  orthogonal box = (0.73598 0.73598 0.73598) to (33.264 33.264 33.264)
  6 by 6 by 6 MPI processor grid
  restoring pair style hybrid/overlay from restart
  restoring bond style fene from restart
  27950 atoms
  8700 bonds
Finding 1-2 1-3 1-4 neighbors ...
  special bond factors lj:   0          1          1         
  special bond factors coul: 0          1          1         
  2 = max # of 1-2 neighbors
  6 = max # of special neighbors
  special bonds CPU = 2.45561 secs
  read_restart CPU = 2.6507 secs
Resetting global fix info from restart file:
  fix style: nvt, fix ID: pt
50 rigid bodies with 950 atoms
Resetting global fix info from restart file:
  fix style: rigid/nvt, fix ID: ri
System init for write_data ...
PPPM initialization ...
  using 12-bit tables for long-range coulomb (src/kspace.cpp:332)
  G vector (1/distance) = 1.0914
  grid = 75 75 75
  stencil order = 5
  estimated absolute RMS force accuracy = 0.000124342
  estimated relative force accuracy = 0.000124342
  using double precision FFTW3
  3d grid and FFT values/proc = 5832 2625
All restart file global fix info was re-assigned
Unused restart file peratom fix info:
  fix style: STORE, fix ID: par_COMPUTE_STORE
WARNING: Neighbor exclusions used with KSpace solver may give inconsistent Coulombic energies (src/neighbor.cpp:486)
Neighbor list info ...
  update every 1 steps, delay 0 steps, check yes
  max neighbors/atom: 2000, page size: 100000
  master list distance cutoff = 2.8
  ghost atom cutoff = 2.8
  binsize = 1.4, bins = 24 24 24
  2 neighbor lists, perpetual/occasional/extra = 2 0 0
  (1) pair lj/cut, perpetual
      attributes: half, newton on
      pair build: half/bin/newton
      stencil: half/bin/3d/newton
      bin: standard
  (2) pair coul/long, perpetual, skip from (1)
      attributes: half, newton on
      pair build: skip
      stencil: none
      bin: none
PPPM initialization ...
  using 12-bit tables for long-range coulomb (src/kspace.cpp:332)
  G vector (1/distance) = 1.0914
  grid = 75 75 75
  stencil order = 5
  estimated absolute RMS force accuracy = 0.000124342
  estimated relative force accuracy = 0.000124342
  using double precision FFTW3
  3d grid and FFT values/proc = 5832 2625
WARNING: Neighbor exclusions used with KSpace solver may give inconsistent Coulombic energies (src/neighbor.cpp:486)
Neighbor list info ...
  update every 1 steps, delay 0 steps, check yes
  max neighbors/atom: 2000, page size: 100000
  master list distance cutoff = 2.8
  ghost atom cutoff = 2.8
  binsize = 1.4, bins = 24 24 24
  2 neighbor lists, perpetual/occasional/extra = 2 0 0
  (1) pair lj/cut, perpetual
      attributes: half, newton on
      pair build: half/bin/newton
      stencil: half/bin/3d/newton
      bin: standard
  (2) pair coul/long, perpetual, skip from (1)
      attributes: half, newton on
      pair build: skip
      stencil: none
      bin: none
Setting up Verlet run ...
  Unit style    : lj
  Current step  : 12000000
  Time step     : 0.005
Per MPI rank memory allocation (min/avg/max) = 9.934 | 9.965 | 10.14 Mbytes
Step Temp Press Volume 
12000000    0.8074673 -0.065844031    34417.053 
12010000   0.80010468  -0.14899898    34417.053 
12020000   0.80043564  -0.11708581    34417.053 
12030000   0.80120888  -0.18661778    34417.053 
12040000     0.792781  -0.15674391    34417.053 
12050000   0.80415417  -0.16704163    34417.053 
12060000   0.79958022  -0.20159927    34417.053 
12070000   0.79508499  -0.17078792    34417.053 
12080000   0.79876538  -0.10902088    34417.053 
12090000   0.79879375  -0.13679511    34417.053 
12100000   0.80199312  -0.18754922    34417.053 
12110000   0.80272139  -0.12518772    34417.053 
12120000    0.7977248  -0.14983983    34417.053 
12130000   0.80245603  -0.15794782    34417.053 
12140000   0.80408973  -0.10561688    34417.053 
12150000     0.812034 -0.085459115    34417.053 
12160000   0.80151644  -0.15656663    34417.053 
12170000   0.80187559  -0.16456553    34417.053 
12180000   0.80188923  -0.06516519    34417.053 
12190000    0.8018598  -0.11937888    34417.053 
12200000   0.80047006  -0.17631828    34417.053 
12210000   0.79283854  -0.21477035    34417.053 
12220000   0.79940737   -0.1185923    34417.053 
12230000   0.80194869  -0.13701518    34417.053 
12240000   0.80204479  -0.16638973    34417.053 
12250000   0.80152189 -0.052959566    34417.053 
12260000   0.79817893  -0.16488769    34417.053 
12270000   0.80284674  -0.14077488    34417.053 
12280000   0.80181264  -0.14019458    34417.053 
12290000   0.79660806  -0.13264605    34417.053 
12300000   0.81063391  -0.09492226    34417.053 
12310000   0.79783898  -0.17711469    34417.053 
12320000   0.79692049 -0.062388552    34417.053 
12330000   0.80143942  -0.16567111    34417.053 
12340000   0.80036815  -0.15373336    34417.053 
12350000    0.7985236  -0.11530286    34417.053 
12360000   0.79560797  -0.13765191    34417.053 
12370000   0.80507842   -0.1249155    34417.053 
12380000   0.80063717  -0.14735095    34417.053 
12390000   0.79872818  -0.14049974    34417.053 
12400000   0.80326846  -0.15199317    34417.053 
12410000   0.79525451  -0.11693967    34417.053 
12420000   0.79781876  -0.17484452    34417.053 
12430000   0.80088628  -0.14534364    34417.053 
12440000   0.80375433  -0.15061857    34417.053 
12450000   0.79171188  -0.13415781    34417.053 
12460000   0.80122753  -0.17892323    34417.053 
12470000   0.80343148  -0.12923615    34417.053 
12480000   0.80128031  -0.15848878    34417.053 
12490000   0.80209429  -0.15673087    34417.053 
12500000   0.80044869   -0.1245943    34417.053 
12510000   0.80394174  -0.16554032    34417.053 
12520000    0.8007582  -0.10807239    34417.053 
12530000   0.80521934  -0.13442828    34417.053 
12540000   0.79952468  -0.14750061    34417.053 
12550000   0.80636136  -0.10134517    34417.053 
12560000   0.79464501  -0.17159096    34417.053 
12570000   0.80314169  -0.16253329    34417.053 
12580000   0.80128028  -0.15875844    34417.053 
12590000   0.80310551  -0.12824013    34417.053 
12600000   0.80261563  -0.15360531    34417.053 
12610000    0.7978063  -0.16026947    34417.053 
12620000   0.79688751  -0.13998283    34417.053 
12630000   0.79373815  -0.15149211    34417.053 
12640000   0.80206603  -0.16258821    34417.053 
12650000   0.80047483  -0.16350078    34417.053 
12660000   0.79904379  -0.13277533    34417.053 
12670000   0.80137725  -0.16564434    34417.053 
12680000   0.80200698  -0.19313078    34417.053 
12690000   0.80116251   -0.1636212    34417.053 
12700000   0.80727627  -0.14926554    34417.053 
12710000   0.80044043  -0.11171223    34417.053 
12720000   0.80549854  -0.10755903    34417.053 
12730000   0.80212445  -0.12675239    34417.053 
12740000   0.79423479  -0.13647985    34417.053 
12750000   0.80220789  -0.15023039    34417.053 
12760000   0.79922344  -0.12212502    34417.053 
12770000   0.80292075  -0.18690193    34417.053 
12780000   0.80195775 -0.069263901    34417.053 
12790000   0.80131755 -0.093653542    34417.053 
12800000   0.79936172  -0.14387061    34417.053 
12810000    0.8010353  -0.12559364    34417.053 
12820000   0.80223967  -0.15306878    34417.053 
12830000   0.80351426  -0.12934163    34417.053 
12840000   0.79621835  -0.15665979    34417.053 
12850000   0.80453102 -0.082549692    34417.053 
12860000   0.80251687  -0.14537379    34417.053 
12870000    0.8050943  -0.16229282    34417.053 
12880000   0.79495213  -0.17697479    34417.053 
12890000    0.8005218 -0.086623911    34417.053 
12900000   0.80085072  -0.10882658    34417.053 
12910000   0.79966385  -0.20519341    34417.053 
12920000   0.80094025   -0.1319448    34417.053 
12930000   0.79622609  -0.15851808    34417.053 
12940000   0.80553203 -0.098658596    34417.053 
12950000   0.79540442  -0.20844608    34417.053 
12960000   0.80391198  -0.16990462    34417.053 
12970000   0.79437421  -0.18945564    34417.053 
12980000   0.80110546  -0.11882084    34417.053 
12990000   0.79365122  -0.12740022    34417.053 
13000000   0.79384372 -0.084655367    34417.053 
Loop time of 7318.67 on 216 procs for 1000000 steps with 27950 atoms

Performance: 59027.119 tau/day, 136.637 timesteps/s
99.8% CPU use with 216 MPI tasks x 1 OpenMP threads

MPI task timing breakdown:
Section |  min time  |  avg time  |  max time  |%varavg| %total
---------------------------------------------------------------
Pair    | 87.689     | 103.2      | 164.33     | 116.4 |  1.41
Bond    | 1.2795     | 1.7116     | 2.2368     |  12.5 |  0.02
Kspace  | 6226.8     | 6380.4     | 6499.3     |  74.0 | 87.18
Neigh   | 111.4      | 117.35     | 124.38     |  24.1 |  1.60
Comm    | 228.02     | 323.5      | 473.21     | 310.0 |  4.42
Output  | 0.011243   | 0.0144     | 0.024776   |   1.3 |  0.00
Modify  | 231.64     | 301.57     | 399.69     | 216.8 |  4.12
Other   |            | 90.91      |            |       |  1.24

Nlocal:    129.398 ave 208 max 102 min
Histogram: 5 58 102 35 10 2 0 2 1 1
Nghost:    956.727 ave 1103 max 887 min
Histogram: 11 38 55 49 38 14 8 1 0 2
Neighs:    4740.08 ave 10736 max 3258 min
Histogram: 16 125 55 13 3 1 1 1 0 1

Total # of neighbors = 1023858
Ave neighs/atom = 36.6318
Ave special neighs/atom = 0.62254
Neighbor list builds = 134479
Dangerous builds = 0
PPPM initialization ...
  using 12-bit tables for long-range coulomb (src/kspace.cpp:332)
  G vector (1/distance) = 1.0914
  grid = 75 75 75
  stencil order = 5
  estimated absolute RMS force accuracy = 0.000124342
  estimated relative force accuracy = 0.000124342
  using double precision FFTW3
  3d grid and FFT values/proc = 5832 2625
WARNING: Neighbor exclusions used with KSpace solver may give inconsistent Coulombic energies (src/neighbor.cpp:486)
Neighbor list info ...
  update every 1 steps, delay 0 steps, check yes
  max neighbors/atom: 2000, page size: 100000
  master list distance cutoff = 2.8
  ghost atom cutoff = 2.8
  binsize = 1.4, bins = 24 24 24
  12 neighbor lists, perpetual/occasional/extra = 2 10 0
  (1) pair lj/cut, perpetual
      attributes: half, newton on
      pair build: half/bin/newton
      stencil: half/bin/3d/newton
      bin: standard
  (2) pair coul/long, perpetual, skip from (1)
      attributes: half, newton on
      pair build: skip
      stencil: none
      bin: none
  (3) compute rdf, occasional, copy from (1)
      attributes: half, newton on
      pair build: copy
      stencil: none
      bin: none
  (4) compute rdf, occasional, copy from (1)
      attributes: half, newton on
      pair build: copy
      stencil: none
      bin: none
  (5) compute rdf, occasional, copy from (1)
      attributes: half, newton on
      pair build: copy
      stencil: none
      bin: none
  (6) compute rdf, occasional, copy from (1)
      attributes: half, newton on
      pair build: copy
      stencil: none
      bin: none
  (7) compute rdf, occasional, copy from (1)
      attributes: half, newton on
      pair build: copy
      stencil: none
      bin: none
  (8) compute rdf, occasional, copy from (1)
      attributes: half, newton on
      pair build: copy
      stencil: none
      bin: none
  (9) compute rdf, occasional, copy from (1)
      attributes: half, newton on
      pair build: copy
      stencil: none
      bin: none
  (10) compute rdf, occasional, copy from (1)
      attributes: half, newton on
      pair build: copy
      stencil: none
      bin: none
  (11) compute rdf, occasional, copy from (1)
      attributes: half, newton on
      pair build: copy
      stencil: none
      bin: none
  (12) compute rdf, occasional, copy from (1)
      attributes: half, newton on
      pair build: copy
      stencil: none
      bin: none
Setting up Verlet run ...
  Unit style    : lj
  Current step  : 0
  Time step     : 0.005
WARNING: One or more chunks do not contain all atoms in molecule (src/compute_chunk_atom.cpp:1163)
Per MPI rank memory allocation (min/avg/max) = 17.61 | 18.92 | 19.68 Mbytes
Step Temp Press PotEng KinEng E_pair E_bond TotEng 
       0   0.79384372  0.064576496    1.7423378    1.1545101   -4.6752657    6.4176035    2.8968479 
   10000    0.7964062  -0.15973173    1.7288178    1.1582368   -4.6824258    6.4112436    2.8870546 
   20000   0.79774436  -0.13419024    1.7358955    1.1601829   -4.6797617    6.4156572    2.8960784 
   30000   0.80292432  -0.10883933    1.7366582    1.1677162   -4.6780046    6.4146628    2.9043744 
   40000   0.81127915  -0.12326937    1.7202571    1.1798669   -4.6911386    6.4113957     2.900124 
   50000   0.80090544  -0.17444922    1.7291033    1.1647801   -4.6852371    6.4143404    2.8938834 
   60000    0.7981561  -0.20035182    1.7275279    1.1607817   -4.6865546    6.4140825    2.8883096 
   70000   0.80451866 -0.097051463    1.7240607    1.1700349   -4.6932308    6.4172915    2.8940956 
   80000   0.80147778 -0.093730143    1.7372203    1.1656125   -4.6740253    6.4112456    2.9028328 
   90000   0.79801559  -0.12693893    1.7275241    1.1605773   -4.6862529     6.413777    2.8881015 
  100000   0.79862072  -0.14183345       1.7251    1.1614574   -4.6908205    6.4159205    2.8865574 
  110000   0.79745726  -0.13723915    1.7356979    1.1597654   -4.6781265    6.4138244    2.8954633 
  120000   0.80287971 -0.084391143    1.7356224    1.1676514   -4.6765657    6.4121881    2.9032738 
  130000   0.80038264  -0.14379824    1.7260562    1.1640198   -4.6862318     6.412288     2.890076 
  140000   0.79759569  -0.18983422    1.7298793    1.1599667   -4.6820974    6.4119767     2.889846 
  150000   0.80355031    -0.184316    1.7330433    1.1686266   -4.6793355    6.4123787    2.9016699 
  160000   0.81137813  -0.11473722    1.7298112    1.1800109   -4.6831836    6.4129947     2.909822 
  170000   0.80186968  -0.17239874    1.7380727    1.1661825   -4.6759413     6.414014    2.9042551 
  180000   0.79662158  -0.14657085    1.7407113      1.15855   -4.6765133    6.4172246    2.8992613 
  190000   0.79502502  -0.13040322    1.7326271    1.1562281   -4.6815734    6.4142005    2.8888551 
  200000   0.79793058  -0.14258294    1.7282439    1.1604537   -4.6846376    6.4128815    2.8886976 
  210000    0.7960928  -0.13592631    1.7355806     1.157781   -4.6804056    6.4159862    2.8933616 
  220000    0.8036398  -0.19383881    1.7296274    1.1687568   -4.6862389    6.4158663    2.8983842 
  230000   0.80701604  -0.12255076    1.7370682     1.173667    -4.678682    6.4157502    2.9107352 
  240000    0.8069648  -0.13585575     1.727876    1.1735924   -4.6852122    6.4130881    2.9014684 
  250000   0.80491658  -0.16399757    1.7242707    1.1706137   -4.6866345    6.4109052    2.8948843 
  260000   0.80157072  -0.12108976    1.7319029    1.1657477   -4.6817313    6.4136342    2.8976505 
  270000   0.79796328   -0.1718359    1.7355086    1.1605013   -4.6768081    6.4123167    2.8960099 
  280000   0.80408337   -0.1542776    1.7282148    1.1694019   -4.6850642     6.413279    2.8976167 
  290000   0.80594188  -0.12066998    1.7320653    1.1721048   -4.6826364    6.4147017    2.9041701 
  300000   0.80643977  -0.11315187    1.7340593    1.1728289      -4.6804    6.4144594    2.9068882 
  310000   0.79604034 -0.072628011    1.7416372    1.1577047   -4.6746879    6.4163251    2.8993419 
  320000   0.79491979  -0.13796811    1.7309439     1.156075   -4.6811888    6.4121326    2.8870189 
  330000   0.79881268 -0.078952353    1.7355635    1.1617366   -4.6753947    6.4109582    2.8973001 
  340000    0.8042685  -0.13190838    1.7289532    1.1696711   -4.6834245    6.4123776    2.8986243 
  350000   0.80190212  -0.10744868    1.7366788    1.1662296   -4.6807324    6.4174112    2.9029084 
  360000   0.79920632  -0.15803108    1.7340491     1.162309   -4.6793344    6.4133835    2.8963581 
  370000   0.80501454  -0.16840566    1.7308331    1.1707561   -4.6826923    6.4135254    2.9015893 
  380000   0.79953905  -0.15360989    1.7321014     1.162793   -4.6838669    6.4159683    2.8948943 
  390000   0.79533965  -0.12583187    1.7358416    1.1566856   -4.6810888    6.4169304    2.8925272 
  400000   0.79598793  -0.15484854    1.7327047    1.1576285    -4.685568    6.4182727    2.8903332 
  410000   0.80598684 -0.095239277    1.7294426    1.1721702   -4.6814612    6.4109038    2.9016128 
  420000   0.79979677  -0.23232905    1.7195944    1.1631678   -4.6953622    6.4149566    2.8827622 
  430000   0.80179058  -0.10133169    1.7362718    1.1660674   -4.6811073     6.417379    2.9023392 
  440000   0.79951523 -0.059681632    1.7394272    1.1627583   -4.6751486    6.4145758    2.9021855 
  450000   0.79883268  -0.17151734    1.7288743    1.1617657   -4.6861433    6.4150176      2.89064 
  460000   0.80461632  -0.13982259    1.7282075     1.170177   -4.6848049    6.4130125    2.8983845 
  470000   0.80424123  -0.10964229     1.736485    1.1696315   -4.6796957    6.4161806    2.9061164 
  480000   0.79771302  -0.17157862     1.715794    1.1601373   -4.6938874    6.4096814    2.8759313 
  490000   0.80244607  -0.15042768    1.7356299    1.1670207   -4.6826587    6.4182886    2.9026506 
  500000   0.80241048   -0.1746323    1.7356392     1.166969   -4.6792959    6.4149351    2.9026082 
  510000   0.80084457   -0.1261651    1.7377143    1.1646916   -4.6795231    6.4172374    2.9024059 
  520000   0.79587219  -0.15437915    1.7284439    1.1574601   -4.6828878    6.4113317     2.885904 
  530000   0.79635244  -0.13287308    1.7293403    1.1581586    -4.685977    6.4153173    2.8874989 
  540000   0.80245084  -0.15188033    1.7347255    1.1670277   -4.6805454    6.4152709    2.9017532 
  550000   0.79691033  -0.13062731    1.7320024    1.1589699   -4.6837118    6.4157142    2.8909723 
  560000   0.79735084  -0.11565107    1.7348511    1.1596106   -4.6795828    6.4144339    2.8944616 
  570000   0.80588526  -0.14421881    1.7298068    1.1720224   -4.6827538    6.4125606    2.9018292 
  580000   0.80044526  -0.16770696    1.7288352    1.1641109   -4.6876423    6.4164775     2.892946 
  590000   0.79785719  -0.11973868     1.730732     1.160347     -4.68236     6.413092     2.891079 
  600000   0.79333238 -0.036161505    1.7371584    1.1537664   -4.6757828    6.4129412    2.8909248 
  610000   0.80032728  -0.14063945    1.7291296    1.1639393   -4.6844313    6.4135609    2.8930689 
  620000   0.79711288  -0.10648566    1.7365746    1.1592645   -4.6788207    6.4153953    2.8958391 
  630000   0.79862679  -0.12780268    1.7280985    1.1614662   -4.6862458    6.4143442    2.8895647 
  640000    0.8067377  -0.15356796    1.7314717    1.1732622   -4.6822148    6.4136865    2.9047338 
  650000   0.80498977  -0.12780344     1.735607    1.1707201    -4.680991    6.4165981    2.9063271 
  660000   0.79874043   -0.1718422    1.7299791    1.1616315   -4.6843292    6.4143083    2.8916106 
  670000   0.80539039 -0.089386975     1.735348    1.1713027    -4.676724     6.412072    2.9066507 
  680000   0.79939489  -0.22313512    1.7255799    1.1625833   -4.6882765    6.4138563    2.8881632 
  690000   0.79967458  -0.15895575    1.7217571    1.1629901   -4.6938044    6.4155615    2.8847472 
  700000   0.80785957  -0.15701642    1.7322982    1.1748937   -4.6834645    6.4157627     2.907192 
  710000   0.79976816  -0.17154508     1.731055    1.1631262   -4.6823387    6.4133937    2.8941811 
  720000   0.79662463  -0.13291072    1.7291116    1.1585544    -4.688017    6.4171286     2.887666 
  730000    0.7952107  -0.12861011    1.7335822    1.1564981   -4.6831667    6.4167489    2.8900803 
  740000   0.80181023  -0.11974406    1.7344759     1.166096   -4.6809993    6.4154753    2.9005719 
  750000   0.79607692  -0.12769874    1.7295896    1.1577579    -4.682357    6.4119466    2.8873474 
  760000    0.8079575  -0.12336104    1.7340488    1.1750361   -4.6821552     6.416204    2.9090849 
  770000   0.79529792  -0.14433948    1.7380259     1.156625   -4.6754595    6.4134854    2.8946509 
  780000   0.79779801  -0.16000882    1.7351904    1.1602609   -4.6801777    6.4153681    2.8954513 
  790000   0.80338432  -0.17161011    1.7291679    1.1683852   -4.6826321    6.4117999    2.8975531 
  800000   0.79586291  -0.12903359     1.737407    1.1574466   -4.6783012    6.4157082    2.8948537 
  810000   0.80367651  -0.17314799    1.7259023    1.1688102   -4.6910597    6.4169621    2.8947125 
  820000   0.79761424  -0.14700565    1.7277838    1.1599936   -4.6870349    6.4148187    2.8877775 
  830000   0.80029157  -0.24413427    1.7267015    1.1638874   -4.6843466     6.411048    2.8905888 
  840000   0.80053344   -0.1361077    1.7365018    1.1642391   -4.6785626    6.4150644     2.900741 
  850000   0.79981105  -0.18843111    1.7279336    1.1631885   -4.6876865      6.41562    2.8911221 
  860000   0.80304846  -0.12379644    1.7335007    1.1678968   -4.6852331    6.4187338    2.9013975 
  870000   0.80065046  -0.16032632    1.7322482    1.1644093   -4.6819513    6.4141996    2.8966576 
  880000   0.79691555   -0.1246218    1.7366987    1.1589775   -4.6810795    6.4177781    2.8956762 
  890000   0.80091064  -0.12936993    1.7347832    1.1647877   -4.6806519    6.4154351    2.8995709 
  900000   0.79840438  -0.14569536     1.732248    1.1611428   -4.6790292    6.4112772    2.8933908 
  910000   0.80046218  -0.22495385    1.7218137    1.1641355   -4.6918079    6.4136217    2.8859492 
  920000   0.79750077  -0.11476019    1.7360883    1.1598286   -4.6775835    6.4136718     2.895917 
  930000   0.80841431  -0.12138684    1.7305686    1.1757005   -4.6812399    6.4118085    2.9062691 
  940000   0.80203164  -0.12302314    1.7303776     1.166418   -4.6838966    6.4142743    2.8967956 
  950000   0.79680401    -0.160761    1.7195947    1.1588153   -4.6927677    6.4123624      2.87841 
  960000   0.79865391  -0.19168995    1.7219667    1.1615057   -4.6913362    6.4133029    2.8834723 
  970000   0.79568422  -0.20031744    1.7306292    1.1571868      -4.6844    6.4150292     2.887816 
  980000   0.79751955  -0.16131425    1.7275625    1.1598559   -4.6868962    6.4144587    2.8874184 
  990000   0.78824276  -0.17529699    1.7267754    1.1463644   -4.6854072    6.4121826    2.8731398 
 1000000   0.79876669   -0.1702682    1.7314052    1.1616697   -4.6852251    6.4166303    2.8930749 
 1010000   0.80302048 -0.083044297    1.7373151    1.1678561   -4.6793747    6.4166898    2.9051712 
 1020000   0.80056866  -0.10817577    1.7307307    1.1642903   -4.6819383     6.412669     2.895021 
 1030000   0.79841141  -0.22748324    1.7311484     1.161153   -4.6867932    6.4179416    2.8923014 
 1040000   0.79773582  -0.17201882    1.7262354    1.1601705   -4.6881406     6.414376    2.8864059 
 1050000   0.80286789  -0.21211178    1.7319079    1.1676342   -4.6830477    6.4149556    2.8995421 
 1060000   0.80056025  -0.12820611    1.7320572    1.1642781   -4.6818968     6.413954    2.8963353 
 1070000   0.79819129  -0.18914462    1.7202605    1.1608329   -4.6925232    6.4127837    2.8810934 
 1080000   0.79670495  -0.10574834    1.7319085    1.1586712   -4.6805395     6.412448    2.8905797 
 1090000   0.79702126  -0.15725522    1.7305821    1.1591313   -4.6817523    6.4123344    2.8897133 
 1100000   0.79835304   -0.2185326     1.725447    1.1610681   -4.6872159    6.4126628    2.8865151 
 1110000   0.80283034  -0.13497136      1.73192    1.1675796   -4.6845931    6.4165131    2.8994996 
 1120000   0.79537889  -0.15592595    1.7297948    1.1567427   -4.6832843     6.413079    2.8865375 
 1130000   0.79530451   -0.1682653    1.7235942    1.1566345   -4.6871053    6.4106995    2.8802288 
 1140000   0.80042839  -0.15935327    1.7303848    1.1640863   -4.6826655    6.4130503    2.8944711 
 1150000   0.79719546  -0.11569598    1.7351077    1.1593846   -4.6800591    6.4151668    2.8944923 
 1160000   0.79423913  -0.10226233    1.7396425    1.1550851   -4.6729966    6.4126392    2.8947276 
 1170000   0.80279507  -0.13788387     1.728665    1.1675283   -4.6833005    6.4119655    2.8961933 
 1180000    0.7963041  -0.11156744     1.725704    1.1580883   -4.6883604    6.4140643    2.8837922 
 1190000   0.79186411  -0.16585502    1.7291971    1.1516311   -4.6818574    6.4110545    2.8808282 
 1200000   0.80029062  -0.16338171     1.728268     1.163886     -4.68599     6.414258     2.892154 
 1210000   0.79669202  -0.16158165    1.7301978    1.1586524   -4.6822614    6.4124591    2.8888502 
 1220000   0.80229275  -0.14565179    1.7285905    1.1667977   -4.6829374    6.4115278    2.8953882 
 1230000   0.80663423 -0.071837702    1.7330144    1.1731117   -4.6822359    6.4152503     2.906126 
 1240000   0.79539736  -0.16679751    1.7284414    1.1567696   -4.6858671    6.4143085     2.885211 
 1250000   0.79879128  -0.22082849    1.7238374    1.1617055   -4.6890896     6.412927    2.8855429 
 1260000   0.79552574    -0.133681    1.7322118    1.1569563   -4.6790096    6.4112214    2.8891681 
 1270000   0.80361339  -0.14486242    1.7288185    1.1687184   -4.6848746    6.4136931    2.8975369 
 1280000    0.8019113   -0.1610848    1.7270053     1.166243   -4.6859726    6.4129779    2.8932483 
 1290000   0.80199342  -0.14342683     1.722533    1.1663624   -4.6907725    6.4133055    2.8888954 
 1300000   0.80049498  -0.11801045      1.73276    1.1641832   -4.6814339    6.4141939    2.8969432 
 1310000   0.80126963  -0.17914181    1.7239558    1.1653098   -4.6890517    6.4130074    2.8892656 
 1320000    0.7979649  -0.12843487    1.7291547    1.1605036   -4.6842336    6.4133883    2.8896583 
 1330000    0.7966324   -0.1319927    1.7355058    1.1585657   -4.6809232    6.4164289    2.8940715 
 1340000   0.79836484  -0.17347061     1.729639    1.1610853   -4.6845872    6.4142262    2.8907243 
 1350000   0.80702049  -0.15051139    1.7329749    1.1736734   -4.6806975    6.4136725    2.9066484 
 1360000   0.79849362  -0.11831299     1.730492    1.1612726   -4.6829899    6.4134819    2.8917646 
 1370000   0.80447128  -0.10304572    1.7454985     1.169966   -4.6693441    6.4148426    2.9154645 
 1380000   0.79434801  -0.22991093    1.7156799    1.1552435    -4.696409    6.4120889    2.8709234 
 1390000   0.80344082  -0.15423391    1.7263058    1.1684674   -4.6865523    6.4128582    2.8947732 
 1400000   0.79931204  -0.18114646    1.7306544    1.1624628   -4.6866822    6.4173366    2.8931172 
 1410000   0.79737317   -0.1260706    1.7399135     1.159643   -4.6769373    6.4168508    2.8995565 
 1420000   0.80055428  -0.15631171    1.7224195    1.1642694   -4.6892983    6.4117178    2.8866889 
 1430000   0.80027176  -0.13043345    1.7326404    1.1638586   -4.6804633    6.4131038     2.896499 
 1440000    0.7999286  -0.13997568    1.7303755    1.1633595   -4.6835353    6.4139109     2.893735 
 1450000   0.80185462  -0.20123428    1.7226943    1.1661606   -4.6909138    6.4136082    2.8888549 
 1460000   0.80300494  -0.17059847    1.7241753    1.1678335   -4.6885136     6.412689    2.8920088 
 1470000    0.8018693   -0.1584824    1.7262208    1.1661819   -4.6870911    6.4133119    2.8924027 
 1480000   0.79873582 -0.083241653    1.7335444    1.1616248    -4.678531    6.4120755    2.8951692 
 1490000   0.79829849  -0.14607259    1.7241086    1.1609888   -4.6855104     6.409619    2.8850974 
 1500000   0.79799175  -0.14938318    1.7285735    1.1605427   -4.6848446    6.4134182    2.8891162 
 1510000   0.80024595  -0.13286644    1.7300872     1.163821   -4.6832829    6.4133701    2.8939082 
 1520000   0.79438231  -0.14640942     1.731807    1.1552934   -4.6814173    6.4132243    2.8871003 
 1530000   0.80314716  -0.13109348     1.732342    1.1680403    -4.681653     6.413995    2.9003823 
 1540000    0.7994055  -0.18083853    1.7287476    1.1625987   -4.6843941    6.4131417    2.8913464 
 1550000   0.79895082  -0.13733052    1.7232994    1.1619375   -4.6895517    6.4128512    2.8852369 
 1560000   0.80168718  -0.13646315    1.7329194     1.165917   -4.6834209    6.4163403    2.8988365 
 1570000   0.80689613  -0.19338269    1.7311379    1.1734926   -4.6849002    6.4160382    2.9046305 
 1580000   0.79889251  -0.19748653    1.7288893    1.1618527   -4.6839312    6.4128205     2.890742 
 1590000   0.80086498  -0.11264346    1.7373647    1.1647213   -4.6782456    6.4156102    2.9020859 
 1600000    0.7995656  -0.11305733    1.7272286    1.1628316   -4.6836677    6.4108963    2.8900601 
 1610000    0.7964572   -0.1619241     1.733709    1.1583109   -4.6802644    6.4139734    2.8920199 
 1620000   0.79922145  -0.17862041    1.7249751    1.1623311    -4.689025    6.4140002    2.8873062 
 1630000   0.79646073  -0.12088979    1.7298115    1.1583161   -4.6849524     6.414764    2.8881276 
 1640000   0.80950923  -0.12246381    1.7340731    1.1772929   -4.6806325    6.4147057     2.911366 
 1650000   0.80211693  -0.11460226    1.7330697     1.166542   -4.6790417    6.4121115    2.8996118 
 1660000   0.79943405  -0.13496543    1.7326658    1.1626403    -4.680754    6.4134198     2.895306 
 1670000   0.79743544  -0.15165284    1.7330637    1.1597336   -4.6815948    6.4146585    2.8927973 
 1680000   0.79669386  -0.12956978    1.7313803    1.1586551   -4.6823369    6.4137172    2.8900354 
 1690000   0.80097643  -0.14604547     1.729864    1.1648834   -4.6829343    6.4127983    2.8947473 
 1700000    0.8025528  -0.18059818    1.7341426    1.1671759   -4.6829545    6.4170971    2.9013186 
 1710000   0.80277813  -0.15472462     1.725482    1.1675036   -4.6880694    6.4135513    2.8929856 
 1720000   0.79451149  -0.15032344    1.7344267    1.1554812    -4.679523    6.4139497    2.8899079 
 1730000    0.7955433 -0.059622028    1.7341943    1.1569818   -4.6802238    6.4144181    2.8911761 
 1740000   0.79399392  -0.16153872    1.7267956    1.1547285   -4.6854528    6.4122484    2.8815242 
 1750000   0.79823788  -0.14425066    1.7348584    1.1609006   -4.6807219    6.4155803     2.895759 
 1760000   0.80238705  -0.12301619    1.7263316    1.1669349   -4.6868517    6.4131834    2.8932665 
 1770000   0.80030619  -0.16768534    1.7329289    1.1639086   -4.6832904    6.4162193    2.8968376 
 1780000   0.79579093  -0.12211741     1.729806     1.157342   -4.6823818    6.4121878     2.887148 
 1790000   0.80169508  -0.13551446    1.7319853    1.1659285   -4.6806474    6.4126327    2.8979138 
 1800000   0.79795391  -0.17450493    1.7373647    1.1604876    -4.676901    6.4142657    2.8978523 
 1810000   0.79678342  -0.14888592    1.7327311    1.1587854    -4.680301    6.4130321    2.8915165 
 1820000   0.80176642  -0.10949008    1.7272285    1.1660323   -4.6873011    6.4145296    2.8932607 
 1830000    0.8037422  -0.14941121    1.7269111    1.1689057   -4.6849913    6.4119024    2.8958169 
 1840000    0.7981626  -0.18675396    1.7349209    1.1607911   -4.6771395    6.4120604     2.895712 
 1850000   0.80471843 -0.072203222    1.7391411    1.1703255   -4.6763439     6.415485    2.9094666 
 1860000    0.8012915 -0.086454433    1.7390337    1.1653416   -4.6773183    6.4163519    2.9043753 
 1870000   0.79531034  -0.12616585    1.7360025     1.156643   -4.6795614    6.4155638    2.8926455 
 1880000   0.80393635  -0.14494229    1.7296268    1.1691881   -4.6804441     6.410071    2.8988149 
 1890000   0.80547778  -0.12251804    1.7263352    1.1714298   -4.6866703    6.4130054     2.897765 
 1900000   0.80200091  -0.14157725    1.7245448    1.1663733   -4.6901674    6.4147123    2.8909181 
 1910000   0.80343953  -0.15184496    1.7250554    1.1684655    -4.686409    6.4114643    2.8935209 
 1920000   0.80539738  -0.11301799    1.7382504    1.1713129   -4.6759093    6.4141597    2.9095633 
 1930000   0.80080113  -0.12779372    1.7343556    1.1646284   -4.6818995    6.4162552    2.8989841 
 1940000   0.79843207 -0.063907664    1.7298947     1.161183   -4.6826851    6.4125798    2.8910777 
 1950000   0.79480469   -0.1333123      1.73742    1.1559076   -4.6762947    6.4137147    2.8933277 
 1960000   0.79875065 -0.069153821    1.7343914    1.1616464    -4.678702    6.4130934    2.8960377 
 1970000   0.80398573  -0.15172065    1.7279231    1.1692599   -4.6856052    6.4135283     2.897183 
 1980000   0.79899362  -0.14735416     1.727297    1.1619997   -4.6857017    6.4129987    2.8892967 
 1990000   0.80417218  -0.14945339    1.7341717    1.1695311   -4.6842059    6.4183776    2.9037027 
 2000000   0.79909485 -0.088753219    1.7360022    1.1621469    -4.679886    6.4158882    2.8981492 
 2010000   0.79934124  -0.10201669    1.7385191    1.1625053   -4.6756459    6.4141651    2.9010244 
 2020000   0.80684501  -0.16133527    1.7241073    1.1734182    -4.687686    6.4117933    2.8975255 
 2030000   0.79904171   -0.0681587    1.7368739    1.1620697   -4.6732074    6.4100813    2.8989435 
 2040000    0.8049069   -0.1136415    1.7334313    1.1705996   -4.6804423    6.4138736    2.9040309 
 2050000   0.79730552  -0.17960456    1.7253911    1.1595447   -4.6849995    6.4103906    2.8849357 
 2060000   0.79881329   -0.1005719    1.7362557    1.1617375   -4.6803678    6.4166235    2.8979931 
 2070000   0.80241461  -0.14925998    1.7285078     1.166975   -4.6871034    6.4156112    2.8954828 
 2080000   0.79550308  -0.17929874    1.7269725    1.1569233    -4.687184    6.4141566    2.8838959 
 2090000   0.80006617  -0.10572278    1.7370493    1.1635596   -4.6770349    6.4140842    2.9006088 
 2100000   0.79356258   -0.2168472    1.7228269    1.1541012   -4.6929159    6.4157428    2.8769281 
 2110000   0.80113985  -0.12293737    1.7355327     1.165121   -4.6781935    6.4137262    2.9006538 
 2120000   0.79676056  -0.16104348    1.7338651    1.1587521   -4.6820045    6.4158696    2.8926172 
 2130000   0.79339496  -0.17769679     1.736866    1.1538574   -4.6810798    6.4179458    2.8907234 
 2140000    0.7969048 -0.077025203    1.7361197    1.1589619   -4.6792321    6.4153518    2.8950816 
 2150000   0.80155981  -0.15536354    1.7271602    1.1657318   -4.6883159    6.4154761     2.892892 
 2160000    0.7991432  -0.18739662    1.7224312    1.1622173   -4.6930281    6.4154593    2.8846484 
 2170000   0.79567096   -0.1577964    1.7294515    1.1571675   -4.6856031    6.4150546     2.886619 
 2180000   0.79895409  -0.20936668    1.7211019    1.1619422   -4.6906794    6.4117813    2.8830441 
 2190000    0.8032987  -0.15947907     1.733208    1.1682607   -4.6828813    6.4160893    2.9014687 
 2200000   0.79154514  -0.12064116    1.7396675    1.1511672   -4.6777036    6.4173711    2.8908347 
 2210000    0.7951894  -0.11516132    1.7330734    1.1564671   -4.6817921    6.4148655    2.8895405 
 2220000   0.80179992  -0.11556488    1.7327822     1.166081   -4.6786165    6.4113987    2.8988632 
 2230000   0.79831036  -0.21060471     1.732043     1.161006   -4.6853438    6.4173868    2.8930491 
 2240000   0.80716821  -0.17232676    1.7244213    1.1738883   -4.6899692    6.4143905    2.8983096 
 2250000   0.80066156 -0.090436977    1.7378118    1.1644255   -4.6761637    6.4139755    2.9022373 
 2260000   0.80092326  -0.17301374    1.7372064    1.1648061   -4.6776334    6.4148398    2.9020125 
 2270000   0.80535397  -0.15865899    1.7277649    1.1712498   -4.6880242     6.415789    2.8990146 
 2280000   0.79653902  -0.16796548    1.7294657    1.1584299   -4.6846586    6.4141243    2.8878956 
 2290000   0.80131086  -0.12040732    1.7348081    1.1653698   -4.6804321    6.4152402    2.9001778 
 2300000   0.80083166  -0.15737347    1.7276594    1.1646728   -4.6875808    6.4152402    2.8923322 
 2310000   0.79671133  -0.15150744    1.7353775    1.1586805   -4.6764126    6.4117901     2.894058 
 2320000   0.80197197  -0.11946555    1.7354155    1.1663312    -4.678758    6.4141734    2.9017467 
 2330000   0.80566443 -0.095007289    1.7320092    1.1717013    -4.684423    6.4164323    2.9037105 
 2340000   0.79669343   -0.1415973    1.7243045    1.1586545   -4.6887619    6.4130663     2.882959 
 2350000   0.79817982   -0.1424572    1.7303998    1.1608162   -4.6820432     6.412443     2.891216 
 2360000    0.8015799  -0.13461511    1.7314902     1.165761   -4.6846351    6.4161253    2.8972512 
 2370000   0.79790676  -0.12351739    1.7311035    1.1604191   -4.6828298    6.4139333    2.8915226 
 2380000    0.8021485  -0.19833984    1.7276224     1.166588   -4.6848371    6.4124595    2.8942104 
 2390000   0.79780427  -0.16778965    1.7283808      1.16027   -4.6867801     6.415161    2.8886509 
 2400000   0.80364396  -0.18468123    1.7294466    1.1687628   -4.6840563    6.4135029    2.8982095 
 2410000   0.80499348  -0.15046838    1.7237987    1.1707255   -4.6895621    6.4133608    2.8945242 
 2420000   0.79931865 -0.083944672    1.7373106    1.1624724   -4.6809859    6.4182965     2.899783 
 2430000   0.80078468  -0.13645687    1.7248558    1.1646045    -4.688653    6.4135088    2.8894603 
 2440000   0.80703711   -0.1247312    1.7336798    1.1736976   -4.6803435    6.4140233    2.9073774 
 2450000   0.79896192  -0.14260376    1.7310748    1.1619536   -4.6845796    6.4156544    2.8930284 
 2460000   0.80358859  -0.18933715    1.7329363    1.1686823    -4.681064    6.4140003    2.9016186 
 2470000    0.7932954   -0.1341397    1.7290394    1.1537126    -4.681705    6.4107445    2.8827521 
 2480000   0.80092759  -0.17065328    1.7360201    1.1648124   -4.6763313    6.4123515    2.9008325 
 2490000   0.79985512  -0.11500158    1.7289393    1.1632526   -4.6852913    6.4142306    2.8921919 
 2500000   0.80175798  -0.10985923    1.7340507      1.16602   -4.6811527    6.4152035    2.9000707 
 2510000   0.80253413  -0.21051582     1.738768    1.1671488   -4.6784748    6.4172428    2.9059168 
 2520000   0.79497481  -0.17607552    1.7335055     1.156155   -4.6820636    6.4155692    2.8896606 
 2530000   0.80641654  -0.16942903    1.7334143    1.1727951   -4.6825049    6.4159193    2.9062094 
 2540000   0.79477454   -0.1207612    1.7344644    1.1558638   -4.6800449    6.4145093    2.8903282 
 2550000   0.80126952  -0.13554448    1.7372613    1.1653096   -4.6784919    6.4157531    2.9025709 
 2560000   0.80836762  -0.13900696    1.7255753    1.1756326   -4.6863868    6.4119621    2.9012079 
 2570000    0.7950004  -0.16490904    1.7250579    1.1561923   -4.6864222    6.4114801    2.8812502 
 2580000   0.79389919  -0.12833062    1.7328862    1.1545907   -4.6834503    6.4163365     2.887477 
 2590000     0.799299  -0.12682176    1.7314056    1.1624438   -4.6814341    6.4128397    2.8938495 
 2600000   0.80120523  -0.14499459     1.731555    1.1652161    -4.685853     6.417408    2.8967711 
 2610000   0.79843129  -0.14803155    1.7293848    1.1611819   -4.6856012     6.414986    2.8905667 
 2620000   0.79391304  -0.15215656    1.7335831    1.1546109   -4.6806061    6.4141892     2.888194 
 2630000   0.80392555  -0.11331111    1.7317041    1.1691724   -4.6816776    6.4133817    2.9008764 
 2640000    0.8028904  -0.10385337    1.7398231    1.1676669   -4.6720059     6.411829      2.90749 
 2650000   0.79863631  -0.11790837      1.73358    1.1614801   -4.6795995    6.4131795    2.8950601 
 2660000   0.79466901  -0.12087611    1.7322187    1.1557103   -4.6839451    6.4161639    2.8879291 
 2670000   0.80529128  -0.22469018    1.7237308    1.1711586   -4.6906689    6.4143997    2.8948894 
 2680000   0.80070376  -0.15897274    1.7298981    1.1644868   -4.6829808    6.4128789    2.8943849 
 2690000   0.80175554  -0.13874759    1.7341538    1.1660165   -4.6824496    6.4166034    2.9001703 
 2700000   0.80594707  -0.13799859    1.7317142    1.1721123   -4.6802783    6.4119925    2.9038266 
 2710000   0.79971755  -0.10666777    1.7337013    1.1630525   -4.6810921    6.4147934    2.8967538 
 2720000   0.80087509  -0.17125374    1.7296185     1.164736   -4.6861183    6.4157368    2.8943545 
 2730000    0.8016958  -0.15165098    1.7346094    1.1659296   -4.6803669    6.4149763    2.9005389 
 2740000   0.79359969  -0.14732692    1.7293435    1.1541552   -4.6858876    6.4152311    2.8834987 
 2750000   0.79863048  -0.06273024    1.7368703    1.1614716   -4.6765602    6.4134304    2.8983419 
 2760000    0.8065977  -0.12785841    1.7291498    1.1730586   -4.6835958    6.4127456    2.9022083 
 2770000   0.80727818  -0.10024433    1.7373419    1.1740482   -4.6803814    6.4177233    2.9113902 
 2780000   0.80145029  -0.13537117    1.7389442    1.1655725   -4.6770485    6.4159927    2.9045167 
 2790000   0.79388652  -0.10821129    1.7355329    1.1545723   -4.6803244    6.4158573    2.8901052 
 2800000   0.79577729   -0.1171883    1.7290172    1.1573221   -4.6836161    6.4126333    2.8863393 
 2810000   0.79760229 -0.084067201    1.7220974    1.1599763   -4.6906579    6.4127553    2.8820737 
 2820000   0.79869557  -0.18843483    1.7254316    1.1615663   -4.6905819    6.4160135    2.8869978 
 2830000   0.80754039  -0.15965219     1.727534    1.1744295   -4.6876836    6.4152177    2.9019636 
 2840000   0.80103258  -0.19167274    1.7265501     1.164965   -4.6883273    6.4148775    2.8915152 
 2850000   0.79706465  -0.18302126    1.7295482    1.1591944   -4.6805586    6.4101068    2.8887425 
 2860000   0.79549949   -0.1484943    1.7459464    1.1569181   -4.6741888    6.4201352    2.9028645 
 2870000   0.80780861  -0.13551992    1.7235457    1.1748196   -4.6903326    6.4138783    2.8983653 
 2880000   0.80050617  -0.20292913    1.7199675    1.1641995   -4.6939277    6.4138951    2.8841669 
 2890000   0.79735993  -0.13098682    1.7316951    1.1596238   -4.6824477    6.4141428    2.8913189 
 2900000   0.79578163  -0.16799853    1.7274518    1.1573284   -4.6869496    6.4144014    2.8847803 
 2910000   0.80055793  -0.10394245    1.7344539    1.1642747   -4.6825176    6.4169715    2.8987286 
 2920000   0.79715352  -0.15308431    1.7279963    1.1593236   -4.6849742    6.4129705    2.8873199 
 2930000   0.80189152  -0.13853624    1.7290795    1.1662142   -4.6827399    6.4118194    2.8952937 
 2940000    0.8003108  -0.17221457    1.7254027    1.1639153   -4.6873545    6.4127572    2.8893181 
 2950000   0.80097124   -0.1658765     1.731917    1.1648758   -4.6851603    6.4170773    2.8967928 
 2960000   0.79381995  -0.17083489     1.732521    1.1544755   -4.6837884    6.4163095    2.8869965 
 2970000   0.80217184  -0.19271845    1.7269303    1.1666219   -4.6913613    6.4182916    2.8935522 
 2980000   0.79665421  -0.12982258    1.7203416    1.1585974   -4.6929655    6.4133071     2.878939 
 2990000   0.80214896 -0.096542493    1.7208722    1.1665886   -4.6893573    6.4102294    2.8874608 
 3000000   0.79766842  -0.14125757    1.7314471    1.1600724   -4.6826322    6.4140794    2.8915196 
 3010000   0.79585991  -0.17341837    1.7241108    1.1574423   -4.6892023    6.4133131    2.8815531 
 3020000   0.79421865  -0.14386727    1.7308413    1.1550553    -4.684339    6.4151803    2.8858967 
 3030000   0.79647791  -0.16584186     1.728917    1.1583411   -4.6857276    6.4146445     2.887258 
 3040000   0.80120864  -0.16956131     1.729047    1.1652211    -4.685568     6.414615    2.8942681 
 3050000   0.79900163  -0.18369593    1.7331937    1.1620114   -4.6809632    6.4141569     2.895205 
 3060000   0.80508085  -0.18464009    1.7327558    1.1708526    -4.680425    6.4131808    2.9036084 
 3070000   0.80118563   -0.1533285    1.7289875    1.1651876   -4.6871419    6.4161294    2.8941751 
 3080000   0.79691328  -0.18065101    1.7362714    1.1589742   -4.6778497    6.4141212    2.8952456 
 3090000   0.79679517   -0.1086139    1.7342331    1.1588025   -4.6800051    6.4142382    2.8930356 
 3100000   0.80129108  -0.18251659    1.7277945     1.165341    -4.683983    6.4117775    2.8931355 
 3110000   0.80418504  -0.13094719    1.7284539    1.1695498   -4.6852155    6.4136694    2.8980036 
 3120000   0.80467791  -0.16366023    1.7374948    1.1702665   -4.6781428    6.4156376    2.9077613 
 3130000    0.8007887  -0.16404493    1.7342448    1.1646104   -4.6815275    6.4157723    2.8988552 
 3140000   0.79878098  -0.15105483    1.7304583    1.1616905   -4.6834216    6.4138799    2.8921487 
 3150000   0.79464297  -0.13737958    1.7296508    1.1556724   -4.6848112     6.414462    2.8853232 
 3160000   0.80668917  -0.14109467    1.7238597    1.1731916   -4.6873506    6.4112103    2.8970513 
 3170000   0.78801359  -0.17781604    1.7247167    1.1460311   -4.6900341    6.4147508    2.8707478 
 3180000   0.80480785  -0.15203509    1.7332842    1.1704555    -4.682707    6.4159912    2.9037398 
 3190000   0.79625312  -0.11544386    1.7337068    1.1580141   -4.6812128    6.4149196    2.8917209 
 3200000   0.78938281  -0.17381879    1.7324857    1.1480224   -4.6835164    6.4160022    2.8805081 
 3210000   0.78983964  -0.13054692    1.7329265    1.1486868   -4.6851158    6.4180423    2.8816133 
 3220000   0.79848626  -0.15534871    1.7301551    1.1612618     -4.68962    6.4197751     2.891417 
 3230000   0.80500044  -0.12290853    1.7269414    1.1707356   -4.6870781    6.4140195     2.897677 
 3240000   0.80631138   -0.1188725    1.7268511    1.1726421    -4.686263    6.4131141    2.8994933 
 3250000   0.79549653  -0.12048284    1.7293985    1.1569138   -4.6847823    6.4141808    2.8863123 
 3260000   0.80212267  -0.16253995    1.7231339    1.1665504   -4.6916285    6.4147625    2.8896843 
 3270000   0.80083405  -0.13149108    1.7352757    1.1646763    -4.678731    6.4140067     2.899952 
 3280000   0.79562556  -0.13742272    1.7281272    1.1571015    -4.685806    6.4139331    2.8852286 
 3290000   0.79614381  -0.14254955    1.7331002    1.1578552   -4.6789429    6.4120431    2.8909553 
 3300000   0.80045921   -0.1035173    1.7377868    1.1641312   -4.6792095    6.4169963     2.901918 
 3310000   0.79924953 -0.098577729    1.7365858    1.1623719   -4.6765214    6.4131071    2.8989577 
 3320000   0.80078706  -0.12477016    1.7297925     1.164608   -4.6852758    6.4150684    2.8944005 
 3330000   0.79803544  -0.12554537    1.7357326    1.1606062   -4.6781257    6.4138582    2.8963388 
 3340000   0.79786844  -0.12850395    1.7311977    1.1603633    -4.681606    6.4128036     2.891561 
 3350000   0.80165568  -0.15101325    1.7322508    1.1658712   -4.6820566    6.4143073     2.898122 
 3360000   0.80332117  -0.11901743    1.7269686    1.1682934   -4.6842599    6.4112285     2.895262 
 3370000   0.79871906  -0.15801499    1.7309345    1.1616004   -4.6833394    6.4142738    2.8925349 
 3380000   0.79969735  -0.17192877    1.7246092    1.1630232   -4.6868146    6.4114238    2.8876323 
 3390000   0.80205507  -0.13941175    1.7303229    1.1664521   -4.6857907    6.4161136     2.896775 
 3400000   0.80617736  -0.12778696    1.7375449    1.1724472   -4.6787761    6.4163211    2.9099921 
 3410000   0.80192814  -0.15046353    1.7365385    1.1662675   -4.6818797    6.4184182     2.902806 
 3420000   0.80423908  -0.14502689    1.7361813    1.1696283   -4.6778232    6.4140045    2.9058097 
 3430000   0.79936913 -0.069469359    1.7336526    1.1625458   -4.6825808    6.4162333    2.8961984 
 3440000     0.803086  -0.17992316     1.726344    1.1679514   -4.6877299    6.4140739    2.8942954 
 3450000   0.80346039  -0.12769726    1.7289519    1.1684959   -4.6880556    6.4170076    2.8974478 
 3460000   0.79676466  -0.20276505    1.7306585    1.1587581   -4.6848751    6.4155335    2.8894165 
 3470000   0.79932092  -0.16105451    1.7239047    1.1624757   -4.6890988    6.4130035    2.8863804 
 3480000   0.80042863  -0.12501136    1.7334769    1.1640867   -4.6822969    6.4157739    2.8975636 
 3490000   0.80206479  -0.16440721    1.7358479    1.1664662    -4.676602    6.4124499    2.9023141 
 3500000   0.80219433  -0.13065876    1.7244169    1.1666546   -4.6873157    6.4117326    2.8910715 
 3510000   0.80031602  -0.14706214    1.7310345    1.1639229   -4.6806558    6.4116903    2.8949574 
 3520000    0.8038916  -0.17537918     1.723334     1.169123   -4.6909978    6.4143318     2.892457 
 3530000   0.80556245  -0.10318398     1.733664     1.171553    -4.679654     6.413318    2.9052169 
 3540000   0.79400767  -0.14400301    1.7281668    1.1547485   -4.6875193    6.4156861    2.8829153 
 3550000   0.79720525  -0.14985242    1.7281319    1.1593988   -4.6852587    6.4133906    2.8875307 
 3560000   0.79204572  -0.12078947    1.7296035    1.1518952   -4.6829646    6.4125681    2.8814987 
 3570000   0.80269367  -0.11305988     1.735957    1.1673808   -4.6790309     6.414988    2.9033378 
 3580000   0.79961467   -0.1083464    1.7334807    1.1629029   -4.6837716    6.4172524    2.8963837 
 3590000   0.80001007  -0.12941158    1.7365583     1.163478   -4.6771725    6.4137309    2.9000363 
 3600000   0.80695765  -0.15251278    1.7297476     1.173582   -4.6849749    6.4147224    2.9033296 
 3610000    0.8034817  -0.13720528     1.728963    1.1685269    -4.684288     6.413251    2.8974898 
 3620000   0.79418307 -0.093983452    1.7437931    1.1550036   -4.6707007    6.4144938    2.8987967 
 3630000   0.80769182  -0.15925115    1.7272883    1.1746498   -4.6863756    6.4136638     2.901938 
 3640000   0.79373705 -0.091135633    1.7351038    1.1543549   -4.6810264    6.4161302    2.8894587 
 3650000   0.80164563  -0.11703861    1.7369358    1.1658566   -4.6750483    6.4119841    2.9027925 
 3660000    0.7961349  -0.17436937    1.7328304    1.1578422   -4.6820175    6.4148479    2.8906726 
 3670000   0.80318184  -0.13927357    1.7341196    1.1680908   -4.6800257    6.4141453    2.9022103 
 3680000   0.80366688  -0.16383293    1.7314193    1.1687962   -4.6818748    6.4132942    2.9002155 
 3690000   0.79920213 -0.090737223     1.735276     1.162303   -4.6755929     6.410869     2.897579 
 3700000   0.79711778  -0.10328349    1.7346463    1.1592716   -4.6770037    6.4116499    2.8939179 
 3710000   0.79977448  -0.12392819     1.733384    1.1631353   -4.6801455    6.4135295    2.8965193 
 3720000   0.80426311  -0.16486824    1.7260353    1.1696633   -4.6882089    6.4142443    2.8956986 
 3730000   0.80181064  -0.14099928    1.7223911    1.1660966   -4.6907548    6.4131459    2.8884877 
 3740000   0.80281273  -0.18968548    1.7261952     1.167554   -4.6873832    6.4135784    2.8937491 
 3750000   0.79421605  -0.09203249    1.7429313    1.1550516   -4.6729628     6.415894    2.8979828 
 3760000   0.79837384  -0.11517956    1.7356905    1.1610984   -4.6803376     6.416028    2.8967888 
 3770000    0.7914198  -0.15831035    1.7363436    1.1509849   -4.6759576    6.4123013    2.8873285 
 3780000   0.80649556  -0.13554927    1.7310573      1.17291   -4.6812264    6.4122836    2.9039673 
 3790000   0.80343991  -0.15518537    1.7309509    1.1684661   -4.6824592    6.4134101     2.899417 
 3800000   0.80526731   -0.1602663    1.7309542    1.1711237   -4.6828497    6.4138039    2.9020779 
 3810000   0.79976298   -0.1615417    1.7267476    1.1631186   -4.6888501    6.4155977    2.8898662 
 3820000   0.79631275  -0.15268943    1.7337574    1.1581009   -4.6824424    6.4161998    2.8918583 
 3830000   0.79873372  -0.11440718     1.732005    1.1616217   -4.6816558    6.4136607    2.8936267 
 3840000   0.80187312    -0.157947    1.7320075    1.1661875   -4.6787491    6.4107567     2.898195 
 3850000   0.80063683  -0.11297242    1.7269518    1.1643895    -4.686869    6.4138208    2.8913413 
 3860000   0.80259229  -0.13772075    1.7287107    1.1672334   -4.6835814    6.4122921    2.8959441 
 3870000   0.80055537  -0.11784041    1.7311691     1.164271   -4.6852727    6.4164418    2.8954401 
 3880000   0.80016985  -0.11093628    1.7292091    1.1637103   -4.6871029     6.416312    2.8929195 
 3890000   0.80188841  -0.14919637    1.7351326    1.1662097   -4.6797617    6.4148943    2.9013423 
 3900000   0.80042437  -0.15266193    1.7261884    1.1640805   -4.6848341    6.4110226    2.8902689 
 3910000   0.79218259  -0.15587881    1.7272361    1.1520942   -4.6867107    6.4139468    2.8793304 
 3920000   0.80061554  -0.11914083    1.7359062    1.1643585   -4.6786649    6.4145711    2.9002647 
 3930000   0.79254533   -0.1261729    1.7367612    1.1526218    -4.680837    6.4175982     2.889383 
 3940000   0.80404987  -0.13538329    1.7284232    1.1693532   -4.6837434    6.4121667    2.8977764 
 3950000   0.79821625  -0.11823879    1.7334455    1.1608692   -4.6810427    6.4144882    2.8943146 
 3960000   0.80051679 -0.093976671    1.7282537    1.1642149   -4.6857988    6.4140525    2.8924686 
 3970000   0.80313963  -0.15121054    1.7219198    1.1680294   -4.6904695    6.4123893    2.8899492 
 3980000   0.79999602  -0.10599763    1.7319216    1.1634575   -4.6813149    6.4132365    2.8953792 
 3990000   0.80474375   -0.1701527    1.7313384    1.1703623   -4.6819129    6.4132513    2.9017007 
 4000000    0.7972147  -0.07112537    1.7308278    1.1594126   -4.6842214    6.4150492    2.8902404 
 4010000   0.80200458  -0.11981799    1.7314552    1.1663786   -4.6811511    6.4126063    2.8978339 
 4020000   0.80489303  -0.18224619    1.7265378    1.1705794   -4.6893259    6.4158637    2.8971172 
 4030000   0.79583625  -0.12026602    1.7320225    1.1574079   -4.6780651    6.4100876    2.8894303 
 4040000   0.80417461  -0.13741407    1.7292562    1.1695346   -4.6876683    6.4169245    2.8987908 
 4050000   0.79565919   -0.1084436    1.7248388    1.1571504   -4.6897892     6.414628    2.8819892 
 4060000   0.79669075  -0.17762546    1.7281524    1.1586506   -4.6825963    6.4107488     2.886803 
 4070000   0.80786485 -0.082324045    1.7325297    1.1749014    -4.682734    6.4152638    2.9074312 
 4080000    0.7967784  -0.12735299    1.7303371    1.1587781   -4.6839768     6.414314    2.8891152 
 4090000   0.80278619  -0.15781421    1.7361464    1.1675154   -4.6809483    6.4170947    2.9036617 
 4100000   0.79882363  -0.16344445    1.7325207    1.1617525   -4.6805047    6.4130254    2.8942732 
 4110000   0.79359573  -0.16271994    1.7323988    1.1541494     -4.68228    6.4146788    2.8865482 
 4120000   0.79586455  -0.15179253    1.7268129     1.157449   -4.6860637    6.4128766     2.884262 
 4130000   0.79871111  -0.20719515    1.7248657    1.1615889   -4.6862352    6.4111009    2.8864546 
 4140000   0.79695501  -0.15993751    1.7338766    1.1590349    -4.681485    6.4153616    2.8929115 
 4150000    0.8017047  -0.16471252    1.7347724    1.1659425   -4.6799766     6.414749     2.900715 
 4160000   0.80086441  -0.11830312    1.7221048    1.1647205   -4.6894512     6.411556    2.8868252 
 4170000   0.80032069   -0.1445076    1.7236283    1.1639297   -4.6884213    6.4120496     2.887558 
 4180000    0.8048447  -0.11736246    1.7308895    1.1705091   -4.6813083    6.4121978    2.9013986 
 4190000   0.79781407  -0.15200736    1.7266716    1.1602843   -4.6865901    6.4132617    2.8869559 
 4200000   0.80613777  -0.10419179    1.7305369    1.1723897   -4.6850392    6.4155761    2.9029266 
 4210000   0.80141517 -0.080236059    1.7321489    1.1655214   -4.6808671     6.413016    2.8976703 
 4220000   0.80582409   -0.1659719    1.7280745    1.1719335   -4.6886812    6.4167556    2.9000079 
 4230000   0.80605199  -0.10796027    1.7343138    1.1722649   -4.6817405    6.4160542    2.9065787 
 4240000   0.79367999  -0.19814109    1.7214083     1.154272    -4.691567    6.4129752    2.8756802 
 4250000   0.79711653  -0.13278548    1.7303699    1.1592698   -4.6832026    6.4135725    2.8896397 
 4260000   0.80017182  -0.10587843      1.73358    1.1637132   -4.6829195    6.4164996    2.8972932 
 4270000   0.79693977  -0.11287712      1.72849    1.1590127   -4.6859989     6.414489    2.8875028 
 4280000   0.80544123 -0.080009521    1.7435587    1.1713767   -4.6719599    6.4155186    2.9149354 
 4290000   0.79959482  -0.13226687    1.7294735    1.1628741   -4.6854651    6.4149386    2.8923476 
 4300000   0.79318529  -0.16169737    1.7247585    1.1535525   -4.6886886    6.4134471     2.878311 
 4310000   0.79866879  -0.12545004    1.7354336    1.1615273   -4.6800864      6.41552     2.896961 
 4320000   0.80007386  -0.13443689    1.7325301    1.1635708   -4.6814943    6.4140244    2.8961009 
 4330000   0.79459709  -0.14457911    1.7330984    1.1556057   -4.6807391    6.4138375    2.8887041 
 4340000    0.8032728   -0.1376014     1.728194    1.1682231   -4.6825814    6.4107755    2.8964171 
 4350000    0.7958567  -0.13599952    1.7340304    1.1574376   -4.6840723    6.4181027     2.891468 
 4360000   0.80464505  -0.11975648    1.7367154    1.1702188   -4.6769853    6.4137006    2.9069341 
 4370000   0.80070195  -0.14754128    1.7358371    1.1644842   -4.6800028    6.4158399    2.9003213 
 4380000   0.80429345  -0.15286781    1.7260638    1.1697074   -4.6868469    6.4129107    2.8957713 
 4390000   0.80242043  -0.10934662    1.7291102    1.1669834   -4.6843103    6.4134205    2.8960936 
 4400000   0.79654881  -0.17332414     1.735137    1.1584442   -4.6795567    6.4146937    2.8935812 
 4410000   0.79882643 -0.078365439    1.7349693    1.1617566   -4.6821005    6.4170697    2.8967258 
 4420000   0.80144372  -0.16355908     1.732139     1.165563   -4.6847015    6.4168405    2.8977019 
 4430000   0.80194095  -0.15821567     1.729731    1.1662861   -4.6881556    6.4178865    2.8960171 
 4440000    0.8024958  -0.13792583      1.72753     1.167093   -4.6876939    6.4152239     2.894623 
 4450000   0.80258912  -0.18798348    1.7361674    1.1672288   -4.6804099    6.4165772    2.9033961 
 4460000   0.80124496   -0.1439008    1.7324146    1.1652739   -4.6845817    6.4169963    2.8976885 
 4470000   0.80349927  -0.11966769    1.7289938    1.1685524   -4.6865546    6.4155485    2.8975463 
 4480000   0.79765365  -0.16181496    1.7308118     1.160051   -4.6805278    6.4113396    2.8908628 
 4490000   0.79602172  -0.17186336    1.7254384    1.1576776   -4.6880971    6.4135354     2.883116 
 4500000   0.79562518  -0.14785097    1.7305507    1.1571009   -4.6841046    6.4146552    2.8876516 
 4510000    0.7990418  -0.10879917    1.7363604    1.1620698   -4.6778888    6.4142492    2.8984302 
 4520000   0.80491798 -0.078237393    1.7319496    1.1706157   -4.6779313    6.4098809    2.9025653 
 4530000   0.80535137  -0.10491242     1.735885     1.171246   -4.6793903    6.4152753     2.907131 
 4540000   0.79785319  -0.11463864    1.7365445    1.1603412   -4.6790431    6.4155876    2.8968856 
 4550000   0.80257415   -0.1404956     1.730791     1.167207   -4.6847527    6.4155437     2.897998 
 4560000   0.79464962 -0.094302989    1.7387266    1.1556821   -4.6734875    6.4122141    2.8944087 
 4570000    0.7985482   -0.1534333      1.72803    1.1613519   -4.6892353    6.4172653    2.8893819 
 4580000   0.80400149  -0.15449098    1.7335832    1.1692828   -4.6807374    6.4143206     2.902866 
 4590000   0.79922797  -0.11861344    1.7314358    1.1623405   -4.6833965    6.4148323    2.8937763 
 4600000   0.79641013   -0.1260938    1.7307641    1.1582425   -4.6839839     6.414748    2.8890066 
 4610000   0.79967028  -0.15264176    1.7285167    1.1629838   -4.6870375    6.4155542    2.8915005 
 4620000   0.79902933 -0.091080901     1.728968    1.1620517   -4.6812138    6.4101818    2.8910197 
 4630000   0.79665568 -0.077498057    1.7380953    1.1585996   -4.6759152    6.4140104    2.8966949 
 4640000   0.79484777  -0.14259372    1.7333336    1.1559703   -4.6804327    6.4137663    2.8893039 
 4650000   0.79077215  -0.10367919     1.732597     1.150043   -4.6792003    6.4117973      2.88264 
 4660000   0.80042086  -0.13262011    1.7340564    1.1640754   -4.6805425    6.4145989    2.8981318 
 4670000   0.79940254  -0.11129152    1.7294369    1.1625944   -4.6837505    6.4131874    2.8920313 
 4680000   0.80288784 -0.070148315     1.732913    1.1676632   -4.6782028    6.4111159    2.9005762 
 4690000   0.79572587  -0.12481919     1.725409    1.1572473   -4.6901254    6.4155343    2.8826563 
 4700000   0.79413834    -0.181464    1.7255342    1.1549385   -4.6900496    6.4155838    2.8804727 
 4710000   0.80240647  -0.11762704     1.729434    1.1669631    -4.682868     6.412302    2.8963971 
 4720000    0.7981741 -0.089201581    1.7365139    1.1608079   -4.6788857    6.4153995    2.8973217 
 4730000   0.79661676  -0.14690011    1.7345776     1.158543   -4.6801446    6.4147222    2.8931206 
 4740000   0.79369519  -0.12420615    1.7210622    1.1542941   -4.6886363    6.4096985    2.8753563 
 4750000   0.79677595  -0.12043756    1.7278423    1.1587745    -4.687555    6.4153973    2.8866168 
 4760000    0.7940774  -0.15048077    1.7246422    1.1548499   -4.6878486    6.4124908    2.8794921 
 4770000   0.80109122 -0.088533845    1.7315872    1.1650503   -4.6821313    6.4137185    2.8966375 
 4780000   0.79936596   -0.1804355    1.7322157    1.1625412   -4.6843581    6.4165738    2.8947569 
 4790000    0.7999128  -0.11198412    1.7320041    1.1633365    -4.680717    6.4127211    2.8953406 
 4800000   0.80599959  -0.11814025    1.7421784    1.1721887   -4.6762714    6.4184497    2.9143671 
 4810000   0.80389892  -0.09361201    1.7340279    1.1691336   -4.6821489    6.4161767    2.9031615 
 4820000   0.80675729  -0.20354386    1.7279868    1.1732907   -4.6833493    6.4113361    2.9012774 
 4830000   0.79846567  -0.16226324    1.7325172    1.1612319   -4.6819034    6.4144206    2.8937491 
 4840000   0.79958481  -0.11624009    1.7371801    1.1628595   -4.6763237    6.4135038    2.9000396 
 4850000    0.7967549  -0.15281962    1.7248629    1.1587439   -4.6870707    6.4119336    2.8836068 
 4860000   0.79429051   -0.1660184    1.7299706    1.1551598   -4.6847211    6.4146918    2.8851305 
 4870000   0.79900982   -0.1222987    1.7285333    1.1620233   -4.6829891    6.4115224    2.8905565 
 4880000   0.80224708  -0.15611196    1.7321561    1.1667313   -4.6814106    6.4135667    2.8988874 
 4890000   0.79732584  -0.13428148    1.7311168    1.1595742   -4.6841453    6.4152621     2.890691 
 4900000   0.80648098  -0.11910962    1.7292313    1.1728888   -4.6807986    6.4100298    2.9021201 
 4910000   0.80084393  -0.17563933    1.7264608    1.1646907   -4.6864114    6.4128722    2.8911514 
 4920000   0.80032606  -0.16637237    1.7293198    1.1639375   -4.6843795    6.4136993    2.8932573 
 4930000   0.80481707  -0.12721442    1.7362592    1.1704689   -4.6803797    6.4166389    2.9067281 
 4940000     0.801555  -0.13552743    1.7309435    1.1657248   -4.6811421    6.4120856    2.8966683 
 4950000   0.80362197  -0.19254899    1.7235651    1.1687309   -4.6887094    6.4122744    2.8922959 
 4960000   0.80067797  -0.12897279    1.7363099    1.1644493   -4.6786311     6.414941    2.9007592 
 4970000    0.7937077  -0.12753159    1.7396752    1.1543123   -4.6794644    6.4191396    2.8939874 
 4980000   0.80203671  -0.16001515    1.7309427    1.1664254   -4.6830362    6.4139789    2.8973681 
 4990000   0.79978917  -0.15928322    1.7321221    1.1631567   -4.6851428    6.4172649    2.8952788 
 5000000   0.79953865  -0.07627339    1.7334576    1.1627924   -4.6819447    6.4154023      2.89625 
 5010000   0.80569554  -0.16735283    1.7339099    1.1717465   -4.6784031     6.412313    2.9056564 
 5020000   0.79970535  -0.11559738    1.7383064    1.1630348   -4.6764762    6.4147826    2.9013412 
 5030000   0.80087173  -0.17793366    1.7228297    1.1647311   -4.6886612    6.4114909    2.8875608 
 5040000    0.7996197  -0.15908896    1.7266278    1.1629102   -4.6852128    6.4118406     2.889538 
 5050000   0.79803621  -0.17908213    1.7180078    1.1606073   -4.6953287    6.4133365    2.8786152 
 5060000   0.79466071  -0.14599971    1.7316602    1.1556982     -4.68294    6.4146002    2.8873584 
 5070000   0.79413563  -0.15739248    1.7316091    1.1549346   -4.6815015    6.4131105    2.8865437 
 5080000   0.80798499  -0.13312507    1.7320659    1.1750761   -4.6784876    6.4105535     2.907142 
 5090000   0.80086614  -0.09081629     1.724764     1.164723   -4.6890978    6.4138618     2.889487 
 5100000    0.7952405  -0.11524584    1.7348791    1.1565414   -4.6807471    6.4156262    2.8914206 
 5110000   0.80912891  -0.13407143    1.7355651    1.1767398   -4.6815929     6.417158    2.9123049 
 5120000   0.79700339  -0.11479285    1.7391641    1.1591053   -4.6773445    6.4165087    2.8982694 
 5130000   0.79527536  -0.13499612    1.7287668    1.1565921   -4.6865886    6.4153555     2.885359 
 5140000   0.79645224  -0.18894453    1.7260185    1.1583037   -4.6886496     6.414668    2.8843222 
 5150000   0.79758147  -0.16253693    1.7294284     1.159946   -4.6856162    6.4150447    2.8893744 
 5160000   0.80566411  -0.18312384    1.7299117    1.1717008    -4.683415    6.4133267    2.9016125 
 5170000   0.79641132  -0.17051173    1.7252163    1.1582442   -4.6902969    6.4155132    2.8834605 
 5180000   0.80033882   -0.1147647    1.7307618    1.1639561    -4.682454    6.4132159    2.8947179 
 5190000   0.79793897  -0.13062892      1.73446    1.1604659   -4.6803619    6.4148219    2.8949259 
 5200000   0.80221818  -0.12750266    1.7358939    1.1666893   -4.6774067    6.4133006    2.9025832 
 5210000   0.79777103  -0.17205065    1.7233427    1.1602217   -4.6864097    6.4097524    2.8835644 
 5220000   0.79479778  -0.12569886     1.728913    1.1558976   -4.6847149    6.4136278    2.8848106 
 5230000   0.80754099  -0.12635077    1.7319828    1.1744304   -4.6851749    6.4171576    2.9064132 
 5240000   0.80310378  -0.13921735    1.7349911    1.1679772   -4.6789096    6.4139006    2.9029683 
 5250000   0.79598837  -0.11638569    1.7295432    1.1576291   -4.6842115    6.4137548    2.8871723 
 5260000   0.80138107  -0.17883596    1.7240813    1.1654719   -4.6889755    6.4130569    2.8895532 
 5270000   0.80201867  -0.10035949    1.7383388    1.1663991   -4.6748116    6.4131505     2.904738 
 5280000   0.79876988  -0.21644745    1.7297408    1.1616743   -4.6849412     6.414682    2.8914151 
 5290000   0.80280598  -0.18904037     1.727874    1.1675441   -4.6881816    6.4160555    2.8954181 
 5300000   0.80573321  -0.15262557     1.731726    1.1718013   -4.6843096    6.4160356    2.9035273 
 5310000   0.80199823  -0.14840472    1.7330624    1.1663694   -4.6803211    6.4133835    2.8994318 
 5320000   0.79756056  -0.13210448    1.7385189    1.1599156   -4.6767773    6.4152962    2.8984344 
 5330000   0.79621057  -0.16497806    1.7237005    1.1579523   -4.6895636    6.4132641    2.8816527 
 5340000   0.80559742  -0.17063648     1.734334    1.1716038   -4.6826529    6.4169869    2.9059378 
 5350000   0.79974514  -0.15478326    1.7300668    1.1630927   -4.6830378    6.4131046    2.8931595 
 5360000   0.80553887  -0.12048206    1.7260506    1.1715187   -4.6846731    6.4107237    2.8975692 
 5370000   0.80464861  -0.14645641    1.7317991    1.1702239   -4.6842195    6.4160186     2.902023 
 5380000   0.80102368 -0.066122164    1.7305104    1.1649521    -4.680219    6.4107294    2.8954625 
 5390000   0.80348312  -0.13441123    1.7382553    1.1685289   -4.6761277    6.4143829    2.9067842 
 5400000   0.79485276  -0.10356376    1.7265534    1.1559775   -4.6852681    6.4118214    2.8825309 
 5410000   0.80363965 -0.076780958    1.7312432    1.1687566   -4.6785638     6.409807    2.8999998 
 5420000   0.79815596  -0.13442683    1.7232309    1.1607815   -4.6886058    6.4118367    2.8840124 
 5430000   0.79894828  -0.14403831    1.7306165    1.1619338    -4.681336    6.4119524    2.8925502 
 5440000   0.79758097  -0.16019064    1.7288605    1.1599453   -4.6838373    6.4126978    2.8888057 
 5450000   0.80122163 -0.096434199    1.7354355      1.16524   -4.6802396    6.4156752    2.9006755 
 5460000   0.79971858  -0.18781533    1.7262141    1.1630541   -4.6883662    6.4145803    2.8892681 
 5470000   0.80318746  -0.12396608    1.7352736    1.1680989   -4.6788126    6.4140861    2.9033725 
 5480000   0.79590781 -0.075744735    1.7384256    1.1575119   -4.6754362    6.4138618    2.8959375 
 5490000   0.79381512  -0.19133575    1.7323152    1.1544685   -4.6832158     6.415531    2.8867837 
 5500000   0.80546005   -0.1639641    1.7311226     1.171404   -4.6830688    6.4141914    2.9025267 
 5510000   0.80037836  -0.15270521    1.7349183    1.1640136   -4.6789611    6.4138794    2.8989319 
 5520000   0.79501951  -0.17309448    1.7335631    1.1562201   -4.6826239     6.416187    2.8897832 
 5530000   0.79910642  -0.19007789    1.7285258    1.1621638   -4.6832225    6.4117483    2.8906895 
 5540000   0.79614157  -0.12055429    1.7276482    1.1578519   -4.6859051    6.4135533    2.8855001 
 5550000   0.80114582 -0.079775321    1.7337057    1.1651297    -4.680661    6.4143667    2.8988354 
 5560000   0.80042574  -0.12391309    1.7296903    1.1640825   -4.6857428    6.4154331    2.8937728 
 5570000   0.80146129  -0.12918559    1.7308935    1.1655885   -4.6826577    6.4135512     2.896482 
 5580000   0.80211747   -0.1376615    1.7332311    1.1665428   -4.6833595    6.4165906    2.8997739 
 5590000    0.8043374  -0.16744957    1.7322545    1.1697713   -4.6825363    6.4147908    2.9020258 
 5600000   0.79834989  -0.12800733     1.732373    1.1610635   -4.6811956    6.4135686    2.8934365 
 5610000   0.79509605  -0.19811401    1.7293523    1.1563314   -4.6859251    6.4152774    2.8856837 
 5620000   0.80502289 -0.076377073    1.7356311    1.1707683   -4.6802122    6.4158433    2.9063994 
 5630000   0.80732836   -0.1691355    1.7301329    1.1741212   -4.6856658    6.4157987    2.9042541 
 5640000   0.80230539   -0.1357043    1.7301868    1.1668161   -4.6833241    6.4135108    2.8970029 
 5650000   0.80221979   -0.1130983    1.7346158    1.1666916   -4.6797147    6.4143304    2.9013074 
 5660000   0.79204732  -0.17054316    1.7296216    1.1518975   -4.6834165    6.4130381    2.8815191 
 5670000    0.7988009   -0.1236159    1.7390945    1.1617194   -4.6771906    6.4162852     2.900814 
 5680000   0.79930892  -0.13082337    1.7320027    1.1624583    -4.681906    6.4139086    2.8944609 
 5690000   0.79117187   -0.1513038    1.7255784    1.1506243   -4.6872461    6.4128245    2.8762027 
 5700000   0.80295102  -0.17479622     1.728162    1.1677551    -4.684348      6.41251    2.8959171 
 5710000   0.80536218  -0.16044948    1.7261878    1.1712617   -4.6872791    6.4134669    2.8974495 
 5720000   0.80166397  -0.10686855    1.7347158    1.1658833   -4.6841922    6.4189081    2.9005991 
 5730000     0.802807  -0.15682286      1.72743    1.1675456   -4.6855611    6.4129911    2.8949756 
 5740000   0.79521929  -0.12794792    1.7299162    1.1565106   -4.6847628    6.4146791    2.8864268 
 5750000     0.800716  -0.14783157    1.7263917    1.1645046   -4.6873574    6.4137491    2.8908963 
 5760000   0.80240727  -0.10961401    1.7341272    1.1669643   -4.6781818    6.4123089    2.9010915 
 5770000   0.79962441  -0.13281635    1.7309653    1.1629171   -4.6841077    6.4150731    2.8938824 
 5780000    0.7997361  -0.10938957    1.7355187    1.1630795    -4.677947    6.4134656    2.8985982 
 5790000   0.80225563  -0.14201273    1.7318567    1.1667438   -4.6815953    6.4134521    2.8986005 
 5800000   0.79741099  -0.12488277     1.730058    1.1596981   -4.6841722    6.4142302    2.8897561 
 5810000     0.796163  -0.12020883    1.7342541    1.1578831   -4.6818715    6.4161257    2.8921372 
 5820000   0.80670941  -0.18137512    1.7272509     1.173221    -4.687003    6.4142538    2.9004719 
 5830000   0.79696191   -0.1512972    1.7326775    1.1590449   -4.6798119    6.4124894    2.8917225 
 5840000   0.79930244  -0.15359007    1.7327894    1.1624489   -4.6858103    6.4185997    2.8952383 
 5850000   0.79496199  -0.15569004    1.7238124    1.1561364   -4.6910157    6.4148281    2.8799489 
 5860000   0.79911247  -0.19142639    1.7272921    1.1621726   -4.6878821    6.4151742    2.8894647 
 5870000   0.79944275  -0.11464006    1.7304745    1.1626529   -4.6827449    6.4132194    2.8931274 
 5880000   0.79925599  -0.17523046    1.7321281    1.1623813   -4.6851583    6.4172864    2.8945094 
 5890000   0.79621387  -0.18384553    1.7284749    1.1579571   -4.6869485    6.4154234    2.8864319 
 5900000   0.80235555  -0.17188483    1.7304804    1.1668891   -4.6818146    6.4122949    2.8973694 
 5910000   0.79330901  -0.15710161     1.730585    1.1537324   -4.6839245    6.4145095    2.8843175 
 5920000   0.79973803 -0.085084751      1.73317    1.1630823   -4.6785125    6.4116825    2.8962523 
 5930000   0.80353857  -0.11259777    1.7314297    1.1686096    -4.681763    6.4131926    2.9000392 
 5940000   0.79569626  -0.17872707    1.7314365    1.1572043   -4.6821182    6.4135547    2.8886408 
 5950000   0.79830375  -0.14713372    1.7242863    1.1609964   -4.6883106    6.4125969    2.8852827 
 5960000   0.79610697  -0.11500343    1.7266446    1.1578016   -4.6864932    6.4131378    2.8844461 
 5970000   0.80376566  -0.12616543    1.7305512    1.1689398   -4.6829495    6.4135007    2.8994911 
 5980000   0.79510256  -0.19335266    1.7264221    1.1563408    -4.687754     6.414176    2.8827629 
 5990000   0.79610497  -0.15753408    1.7283731    1.1577987   -4.6853745    6.4137476    2.8861718 
 6000000   0.79447075  -0.21920976    1.7330982     1.155422   -4.6810985    6.4141967    2.8885202 
Loop time of 45012 on 216 procs for 6000000 steps with 27950 atoms

Performance: 57584.693 tau/day, 133.298 timesteps/s
99.9% CPU use with 216 MPI tasks x 1 OpenMP threads

MPI task timing breakdown:
Section |  min time  |  avg time  |  max time  |%varavg| %total
---------------------------------------------------------------
Pair    | 609.6      | 655.56     | 731.72     |  99.9 |  1.46
Bond    | 13.775     | 15.566     | 18.349     |  19.6 |  0.03
Kspace  | 39013      | 39148      | 39264      |  29.3 | 86.97
Neigh   | 649.56     | 683.24     | 726.92     |  64.8 |  1.52
Comm    | 1243.2     | 1498.2     | 1756.5     | 334.4 |  3.33
Output  | 2.6206     | 2.6714     | 2.6836     |   0.4 |  0.01
Modify  | 2455       | 2595.7     | 2781.2     | 148.6 |  5.77
Other   |            | 413        |            |       |  0.92

Nlocal:    129.398 ave 191 max 111 min
Histogram: 16 86 68 27 9 5 2 1 1 1
Nghost:    956.333 ave 1064 max 902 min
Histogram: 15 36 47 51 32 18 7 8 0 2
Neighs:    4735.51 ave 8645 max 3663 min
Histogram: 29 95 55 24 4 2 2 2 2 1

Total # of neighbors = 1022870
Ave neighs/atom = 36.5964
Ave special neighs/atom = 0.62254
Neighbor list builds = 807107
Dangerous builds = 0
System init for write_restart ...
PPPM initialization ...
  using 12-bit tables for long-range coulomb (src/kspace.cpp:332)
  G vector (1/distance) = 1.0914
  grid = 75 75 75
  stencil order = 5
  estimated absolute RMS force accuracy = 0.000124342
  estimated relative force accuracy = 0.000124342
  using double precision FFTW3
  3d grid and FFT values/proc = 5832 2625
WARNING: Neighbor exclusions used with KSpace solver may give inconsistent Coulombic energies (src/neighbor.cpp:486)
Neighbor list info ...
  update every 1 steps, delay 0 steps, check yes
  max neighbors/atom: 2000, page size: 100000
  master list distance cutoff = 2.8
  ghost atom cutoff = 2.8
  binsize = 1.4, bins = 24 24 24
  12 neighbor lists, perpetual/occasional/extra = 2 10 0
  (1) pair lj/cut, perpetual
      attributes: half, newton on
      pair build: half/bin/newton
      stencil: half/bin/3d/newton
      bin: standard
  (2) pair coul/long, perpetual, skip from (1)
      attributes: half, newton on
      pair build: skip
      stencil: none
      bin: none
  (3) compute rdf, occasional, copy from (1)
      attributes: half, newton on
      pair build: copy
      stencil: none
      bin: none
  (4) compute rdf, occasional, copy from (1)
      attributes: half, newton on
      pair build: copy
      stencil: none
      bin: none
  (5) compute rdf, occasional, copy from (1)
      attributes: half, newton on
      pair build: copy
      stencil: none
      bin: none
  (6) compute rdf, occasional, copy from (1)
      attributes: half, newton on
      pair build: copy
      stencil: none
      bin: none
  (7) compute rdf, occasional, copy from (1)
      attributes: half, newton on
      pair build: copy
      stencil: none
      bin: none
  (8) compute rdf, occasional, copy from (1)
      attributes: half, newton on
      pair build: copy
      stencil: none
      bin: none
  (9) compute rdf, occasional, copy from (1)
      attributes: half, newton on
      pair build: copy
      stencil: none
      bin: none
  (10) compute rdf, occasional, copy from (1)
      attributes: half, newton on
      pair build: copy
      stencil: none
      bin: none
  (11) compute rdf, occasional, copy from (1)
      attributes: half, newton on
      pair build: copy
      stencil: none
      bin: none
  (12) compute rdf, occasional, copy from (1)
      attributes: half, newton on
      pair build: copy
      stencil: none
      bin: none
PPPM initialization ...
  using 12-bit tables for long-range coulomb (src/kspace.cpp:332)
  G vector (1/distance) = 1.0914
  grid = 75 75 75
  stencil order = 5
  estimated absolute RMS force accuracy = 0.000124342
  estimated relative force accuracy = 0.000124342
  using double precision FFTW3
  3d grid and FFT values/proc = 5832 2625
WARNING: Neighbor exclusions used with KSpace solver may give inconsistent Coulombic energies (src/neighbor.cpp:486)
Neighbor list info ...
  update every 1 steps, delay 0 steps, check yes
  max neighbors/atom: 2000, page size: 100000
  master list distance cutoff = 2.8
  ghost atom cutoff = 2.8
  binsize = 1.4, bins = 24 24 24
  12 neighbor lists, perpetual/occasional/extra = 2 10 0
  (1) pair lj/cut, perpetual
      attributes: half, newton on
      pair build: half/bin/newton
      stencil: half/bin/3d/newton
      bin: standard
  (2) pair coul/long, perpetual, skip from (1)
      attributes: half, newton on
      pair build: skip
      stencil: none
      bin: none
  (3) compute rdf, occasional, copy from (1)
      attributes: half, newton on
      pair build: copy
      stencil: none
      bin: none
  (4) compute rdf, occasional, copy from (1)
      attributes: half, newton on
      pair build: copy
      stencil: none
      bin: none
  (5) compute rdf, occasional, copy from (1)
      attributes: half, newton on
      pair build: copy
      stencil: none
      bin: none
  (6) compute rdf, occasional, copy from (1)
      attributes: half, newton on
      pair build: copy
      stencil: none
      bin: none
  (7) compute rdf, occasional, copy from (1)
      attributes: half, newton on
      pair build: copy
      stencil: none
      bin: none
  (8) compute rdf, occasional, copy from (1)
      attributes: half, newton on
      pair build: copy
      stencil: none
      bin: none
  (9) compute rdf, occasional, copy from (1)
      attributes: half, newton on
      pair build: copy
      stencil: none
      bin: none
  (10) compute rdf, occasional, copy from (1)
      attributes: half, newton on
      pair build: copy
      stencil: none
      bin: none
  (11) compute rdf, occasional, copy from (1)
      attributes: half, newton on
      pair build: copy
      stencil: none
      bin: none
  (12) compute rdf, occasional, copy from (1)
      attributes: half, newton on
      pair build: copy
      stencil: none
      bin: none
Setting up Verlet run ...
  Unit style    : lj
  Current step  : 6000000
  Time step     : 0.005
Per MPI rank memory allocation (min/avg/max) = 17.51 | 18.85 | 19.59 Mbytes
Step Lx Ly Lz Press Pxx Pyy Pzz PotEng Temp 
 6000000     32.52804     32.52804     32.52804  -0.10902949 -0.0086233216  -0.28493005   -0.0335351    1.7330982   0.79447075 
 6000010    33.178601    32.207559    32.207559  -0.10528315   -1.0289067    0.3276441   0.38541317    1.7417255   0.80112548 
 6000020    33.829161    31.896367    31.896367  -0.08191333   -1.0649617   0.37469857   0.44452317    1.7581863   0.81417487 
 6000030    34.479722    31.594025    31.594025  0.006864009   -1.1893248   0.55266025   0.65725653    1.7724297   0.82926199 
 6000040    35.130283    31.300121    31.300121   0.12383342   -1.2111417   0.72470968    0.8579323    1.7992499   0.83940327 
 6000050    35.780844    31.014269    31.014269   0.18957065   -1.1482242   0.85858205   0.85835414    1.8132706   0.85823166 
 6000060    36.431405    30.736109    30.736109   0.26620674   -1.0384085   0.95184027   0.88518841    1.8254071   0.87726346 
 6000070    37.081965    30.465301    30.465301   0.31588218  -0.96791383   0.97338736     0.942173    1.8410809   0.89122674 
 6000080    37.732526    30.201527    30.201527   0.48496321  -0.86501637    1.1642326    1.1556735     1.862422   0.90154297 
 6000090    38.383087    29.944488    29.944488   0.53346382   -0.7222044    1.1865254    1.1360704    1.8768447   0.91535367 
 6000100    39.033648    29.693902    29.693902   0.56111701  -0.73172666    1.2287248    1.1863528    1.8926442   0.92671229 
Loop time of 0.835589 on 216 procs for 100 steps with 27950 atoms

Performance: 51700.045 tau/day, 119.676 timesteps/s
99.9% CPU use with 216 MPI tasks x 1 OpenMP threads

MPI task timing breakdown:
Section |  min time  |  avg time  |  max time  |%varavg| %total
---------------------------------------------------------------
Pair    | 0.0076087  | 0.010357   | 0.026515   |   2.8 |  1.24
Bond    | 9.8467e-05 | 0.00020113 | 0.00034142 |   0.0 |  0.02
Kspace  | 0.60235    | 0.6224     | 0.62926    |   0.7 | 74.49
Neigh   | 0.03515    | 0.03765    | 0.040072   |   0.6 |  4.51
Comm    | 0.031307   | 0.039684   | 0.052091   |   2.0 |  4.75
Output  | 0.0032489  | 0.0052357  | 0.0078397  |   0.9 |  0.63
Modify  | 0.06573    | 0.079513   | 0.10177    |   2.5 |  9.52
Other   |            | 0.04055    |            |       |  4.85

Nlocal:    129.398 ave 187 max 111 min
Histogram: 11 81 82 20 11 6 1 3 0 1
Nghost:    964.31 ave 1081 max 901 min
Histogram: 7 21 53 62 46 14 7 4 1 1
Neighs:    4750.44 ave 8191 max 3596 min
Histogram: 11 81 77 22 15 3 1 1 3 2

Total # of neighbors = 1026094
Ave neighs/atom = 36.7118
Ave special neighs/atom = 0.62254
Neighbor list builds = 49
Dangerous builds = 0
PPPM initialization ...
  using 12-bit tables for long-range coulomb (src/kspace.cpp:332)
  G vector (1/distance) = 1.10112
  grid = 90 72 72
  stencil order = 5
  estimated absolute RMS force accuracy = 0.000107521
  estimated relative force accuracy = 0.000107521
  using double precision FFTW3
  3d grid and FFT values/proc = 5780 2160
WARNING: Neighbor exclusions used with KSpace solver may give inconsistent Coulombic energies (src/neighbor.cpp:486)
Neighbor list info ...
  update every 1 steps, delay 0 steps, check yes
  max neighbors/atom: 2000, page size: 100000
  master list distance cutoff = 2.8
  ghost atom cutoff = 2.8
  binsize = 1.4, bins = 28 22 22
  12 neighbor lists, perpetual/occasional/extra = 2 10 0
  (1) pair lj/cut, perpetual
      attributes: half, newton on
      pair build: half/bin/newton
      stencil: half/bin/3d/newton
      bin: standard
  (2) pair coul/long, perpetual, skip from (1)
      attributes: half, newton on
      pair build: skip
      stencil: none
      bin: none
  (3) compute rdf, occasional, copy from (1)
      attributes: half, newton on
      pair build: copy
      stencil: none
      bin: none
  (4) compute rdf, occasional, copy from (1)
      attributes: half, newton on
      pair build: copy
      stencil: none
      bin: none
  (5) compute rdf, occasional, copy from (1)
      attributes: half, newton on
      pair build: copy
      stencil: none
      bin: none
  (6) compute rdf, occasional, copy from (1)
      attributes: half, newton on
      pair build: copy
      stencil: none
      bin: none
  (7) compute rdf, occasional, copy from (1)
      attributes: half, newton on
      pair build: copy
      stencil: none
      bin: none
  (8) compute rdf, occasional, copy from (1)
      attributes: half, newton on
      pair build: copy
      stencil: none
      bin: none
  (9) compute rdf, occasional, copy from (1)
      attributes: half, newton on
      pair build: copy
      stencil: none
      bin: none
  (10) compute rdf, occasional, copy from (1)
      attributes: half, newton on
      pair build: copy
      stencil: none
      bin: none
  (11) compute rdf, occasional, copy from (1)
      attributes: half, newton on
      pair build: copy
      stencil: none
      bin: none
  (12) compute rdf, occasional, copy from (1)
      attributes: half, newton on
      pair build: copy
      stencil: none
      bin: none
Setting up Verlet run ...
  Unit style    : lj
  Current step  : 6000100
  Time step     : 0.005
Per MPI rank memory allocation (min/avg/max) = 17.53 | 18.85 | 19.54 Mbytes
Step Lx Ly Lz Press Pxx Pyy Pzz PotEng Temp 
 6000100    39.033648    29.693902    29.693902    0.6412917  -0.77373744     1.323653    1.3739596     1.896946   0.92671229 
 6010000    39.033648    29.693902    29.693902  -0.16714147  -0.16668059  -0.18197105  -0.15277277    1.7339331   0.80031244 
 6020000    39.033648    29.693902    29.693902 -0.088368271 -0.074357311 -0.038022726  -0.15272478     1.724122   0.79638568 
 6030000    39.033648    29.693902    29.693902  -0.08518714 -0.057836785  -0.13493937  -0.06278526    1.7279827   0.80739454 
 6040000    39.033648    29.693902    29.693902  -0.13513329  -0.14830499  -0.11792487  -0.13917001    1.7331736   0.79728929 
 6050000    39.033648    29.693902    29.693902  -0.15954021  -0.20298193  -0.16745948  -0.10817922    1.7328879   0.79921908 
 6060000    39.033648    29.693902    29.693902  -0.11202438 -0.072022392  -0.13347809  -0.13057267    1.7380359    0.7968175 
 6070000    39.033648    29.693902    29.693902 -0.091155247  -0.14960793 -0.061499377 -0.062358429    1.7345138   0.80391232 
 6080000    39.033648    29.693902    29.693902  -0.11218057  -0.16787026  -0.11135257 -0.057318878    1.7295313   0.80696244 
 6090000    39.033648    29.693902    29.693902  -0.16559425  -0.16280944  -0.19377443  -0.14019888    1.7222435   0.79985619 
 6100000    39.033648    29.693902    29.693902  -0.13944192 -0.066700811  -0.19650217  -0.15512277    1.7355706   0.79223239 
 6100100    39.033648    29.693902    29.693902 -0.092520775  -0.13972996 -0.085963525 -0.051868842    1.7295114   0.79731268 
Loop time of 740.851 on 216 procs for 100000 steps with 27950 atoms

Performance: 58311.290 tau/day, 134.980 timesteps/s
99.9% CPU use with 216 MPI tasks x 1 OpenMP threads

MPI task timing breakdown:
Section |  min time  |  avg time  |  max time  |%varavg| %total
---------------------------------------------------------------
Pair    | 8.0013     | 10.414     | 23.024     |  71.2 |  1.41
Bond    | 0.13992    | 0.21216    | 0.33053    |   7.0 |  0.03
Kspace  | 633.75     | 651.34     | 661.01     |  21.2 | 87.92
Neigh   | 10.411     | 11.024     | 11.763     |   8.9 |  1.49
Comm    | 21.959     | 29.895     | 41.111     |  82.4 |  4.04
Output  | 0.044046   | 0.044088   | 0.045131   |   0.0 |  0.01
Modify  | 23.019     | 29.625     | 35.889     |  47.8 |  4.00
Other   |            | 8.296      |            |       |  1.12

Nlocal:    129.398 ave 172 max 112 min
Histogram: 17 44 72 41 19 8 8 2 1 4
Nghost:    964.87 ave 1060 max 888 min
Histogram: 3 12 31 45 53 33 19 7 10 3
Neighs:    4741.36 ave 7860 max 3732 min
Histogram: 33 68 60 23 15 7 5 1 2 2

Total # of neighbors = 1024134
Ave neighs/atom = 36.6416
Ave special neighs/atom = 0.62254
Neighbor list builds = 13449
Dangerous builds = 0
Total wall time: 14:44:35
