ITEM: TIMESTEP
0
ITEM: NUMBER OF ATOMS
950
ITEM: BOX BOUNDS pp pp pp
7.3598007983716585e-01 3.3264019920151441e+01
7.3598007983716585e-01 3.3264019920151441e+01
7.3598007983716585e-01 3.3264019920151441e+01
ITEM: ATOMS id mol type x y z 
16505 0 5 4.66615 0.765043 5.10805 
15846 0 5 2.72455 4.00302 7.33032 
18519 0 5 4.37259 4.10651 7.1789 
4170 0 5 1.40372 5.03718 8.49683 
10155 0 5 1.94289 5.8059 10.8286 
14250 0 5 2.1097 1.71757 14.7304 
23417 0 5 3.35962 4.3773 13.937 
24337 0 5 2.05382 0.810973 16.216 
8919 0 5 3.27232 1.40749 16.3445 
13746 0 5 4.82923 1.55242 21.2365 
21494 0 5 4.53788 2.57047 21.5991 
20964 0 5 4.24458 2.19902 22.537 
7556 0 5 5.83988 0.969815 23.5258 
8680 0 5 1.16486 6.13159 26.6167 
20710 0 5 2.90744 7.59496 5.00904 
3362 0 5 3.03833 7.47905 11.4571 
6515 0 5 2.22597 7.15684 19.421 
11897 0 5 5.43896 9.29509 22.4913 
10610 0 5 3.52988 9.5034 25.8913 
21483 0 5 5.46092 10.3733 26.3997 
16172 0 5 2.68375 8.08054 29.8484 
11574 0 5 1.83559 7.97501 31.9493 
2227 0 5 5.5061 10.4223 31.7641 
13646 0 5 4.05579 13.4233 1.69203 
4248 0 5 2.48758 13.3653 3.57637 
12931 0 5 4.32807 12.3089 3.43287 
23695 0 5 3.34568 16.8626 5.0876 
15114 0 5 3.32339 16.6466 12.7743 
16195 0 5 1.55071 14.5004 13.8845 
1639 0 5 4.52193 15.2915 16.8193 
5713 0 5 2.34664 13.3884 17.2294 
20300 0 5 3.61963 13.867 20.5457 
3336 0 5 2.0365 16.4853 19.4051 
16874 0 5 1.62026 15.3856 20.5103 
22540 0 5 2.52206 16.3276 22.1714 
25214 0 5 2.90966 15.8773 21.1055 
25305 0 5 2.19391 13.5154 23.4664 
18472 0 5 4.48706 15.6995 23.7831 
20910 0 5 5.25348 12.3544 25.4436 
1071 0 5 2.07569 16.8973 24.6566 
785 0 5 0.995742 16.9346 26.558 
4762 0 5 1.21322 13.5748 28.1281 
1764 0 5 4.13399 15.8116 28.8986 
20351 0 5 2.99486 16.3513 30.1979 
18463 0 5 5.9233 13.363 32.3195 
24173 0 5 1.65192 14.5228 32.9813 
3586 0 5 2.89925 16.2463 31.8183 
10428 0 5 5.2175 16.5483 32.9913 
26076 0 5 2.68529 21.091 2.8173 
18939 0 5 4.45183 18.1923 6.79601 
7684 0 5 0.98244 19.844 7.3465 
19813 0 5 2.1796 20.636 9.87423 
23686 0 5 0.784715 18.0875 15.1185 
3085 0 5 4.36167 18.8743 18.2721 
21868 0 5 4.67454 22.1729 20.083 
18565 0 5 2.70319 18.7647 22.0913 
23815 0 5 4.46014 17.5881 21.4795 
16049 0 5 2.84066 22.2735 25.4275 
24245 0 5 3.1211 17.2693 27.5567 
268 0 5 4.84757 22.1484 26.4908 
9134 0 5 4.47521 18.3413 28.6818 
26830 0 5 5.22737 17.7226 29.2688 
2913 0 5 2.75456 17.7912 31.6931 
10300 0 5 4.40092 25.7169 0.738367 
26661 0 5 2.20184 25.9616 10.4132 
11018 0 5 0.981705 24.477 14.6694 
7515 0 5 1.74237 24.0611 17.7598 
3026 0 5 2.69305 23.4274 17.2408 
18044 0 5 1.82605 26.7661 17.1197 
3121 0 5 3.00786 27.5521 22.6183 
14457 0 5 1.1406 25.6934 25.9231 
4327 0 5 4.9313 24.2559 32.2273 
14659 0 5 3.19343 26.953 32.3286 
22522 0 5 3.8957 28.41 5.65184 
12173 0 5 2.05722 31.884 4.51889 
4638 0 5 6.06907 30.4298 7.01166 
1644 0 5 3.44338 32.1434 6.68442 
12494 0 5 1.61842 31.5342 9.70462 
20944 0 5 3.84657 31.9469 11.2221 
21645 0 5 4.63111 30.159 12.0504 
23955 0 5 2.45 33.2586 14.9041 
4790 0 5 2.25108 31.3289 20.4014 
16930 0 5 1.23423 30.2489 21.6928 
25150 0 5 4.91523 30.1691 21.7389 
15476 0 5 5.15948 31.1036 21.4666 
4601 0 5 4.6366 31.8554 22.021 
20685 0 5 5.15884 32.2109 21.0351 
23527 0 5 4.26138 32.6546 22.7715 
10555 0 5 5.86657 32.3893 23.7198 
9481 0 5 3.18415 31.2734 24.638 
18140 0 5 4.66822 32.8332 24.8253 
25456 0 5 8.13253 1.82968 4.3164 
24060 0 5 8.97571 5.37756 3.88058 
6563 0 5 8.43373 4.36376 6.64023 
17676 0 5 11.378 5.95163 6.44007 
14277 0 5 10.97 4.67534 9.73944 
26679 0 5 7.9102 4.61479 10.8999 
14027 0 5 7.25916 5.66347 11.5737 
20916 0 5 9.2867 6.01981 9.92791 
24656 0 5 9.15865 4.90988 10.2677 
13237 0 5 10.6373 5.80863 11.5207 
12832 0 5 9.77145 5.29522 11.86 
19316 0 5 9.29651 6.03862 13.7856 
13548 0 5 10.3893 1.72322 18.3135 
2286 0 5 6.59388 1.52873 19.783 
12416 0 5 7.51773 1.14352 20.5958 
2962 0 5 9.56127 0.777221 20.6048 
12156 0 5 6.94023 1.76775 21.4004 
16852 0 5 7.06836 0.754593 21.5489 
16423 0 5 9.30114 1.3501 21.5488 
11065 0 5 7.47905 4.3447 21.3556 
24821 0 5 7.84531 3.24988 23.9169 
24509 0 5 10.7623 1.01389 27.0377 
4387 0 5 10.8457 4.1132 30.0631 
16282 0 5 7.72692 4.71716 30.9394 
26939 0 5 11.3025 1.16812 31.9041 
8633 0 5 6.1678 2.58461 33.2333 
9545 0 5 11.4054 4.74108 33.0198 
25458 0 5 6.6848 6.60712 0.796945 
15961 0 5 11.0114 7.36085 1.27507 
20674 0 5 6.32708 9.24801 1.64867 
24030 0 5 7.93348 11.3623 2.24701 
17990 0 5 8.32336 8.86326 6.09558 
15182 0 5 10.3619 7.63297 7.8237 
5422 0 5 9.36434 7.1107 9.65766 
767 0 5 10.2719 6.50462 9.43296 
4182 0 5 10.3464 7.55297 9.096 
6375 0 5 6.83326 8.92457 9.4822 
23803 0 5 11.1456 8.39311 8.63571 
20862 0 5 11.1136 11.2716 8.13273 
11638 0 5 7.53431 7.01605 10.5376 
23657 0 5 11.5303 7.32854 10.8052 
11576 0 5 10.6779 6.86532 11.2518 
192 0 5 8.54028 8.63763 9.93759 
17303 0 5 8.11968 7.50169 11.6994 
14131 0 5 9.227 7.67701 14.9816 
12831 0 5 9.86421 7.32987 18.1114 
696 0 5 6.98622 9.38233 19.3761 
2338 0 5 8.73852 10.3091 18.9445 
5521 0 5 9.98587 11.4268 18.8426 
18744 0 5 11.0748 10.6807 19.2897 
1674 0 5 6.91632 6.89768 20.9082 
9263 0 5 9.88269 8.97471 21.9492 
2886 0 5 9.51018 10.5453 20.9986 
13820 0 5 10.4796 11.0551 21.0421 
7178 0 5 6.51784 9.70607 24.6294 
21716 0 5 11.4395 7.06349 27.487 
2399 0 5 10.0207 10.7514 26.3732 
3814 0 5 6.91894 10.7244 27.874 
17305 0 5 8.3008 6.54309 30.9333 
17877 0 5 11.3823 12.1875 8.73017 
16904 0 5 9.01279 14.361 10.0846 
1880 0 5 10.8599 16.3067 16.4952 
25126 0 5 10.6224 13.1728 18.0892 
15477 0 5 6.49425 14.1946 19.8657 
20925 0 5 9.04711 14.6416 20.2381 
10502 0 5 8.05244 12.6811 20.9795 
26923 0 5 9.90927 11.8832 21.5283 
22173 0 5 8.39433 13.5542 22.1704 
4472 0 5 6.59593 13.0552 25.1322 
11581 0 5 10.2234 12.6732 24.4166 
5344 0 5 10.3313 16.5875 27.4322 
3820 0 5 9.99503 13.6739 32.292 
4361 0 5 7.16789 17.6431 0.906775 
2220 0 5 7.4953 20.0425 1.82658 
25903 0 5 9.45126 19.2634 1.41397 
5924 0 5 9.68411 19.4638 2.50984 
5178 0 5 10.149 20.0931 1.56097 
7085 0 5 8.32298 20.8619 2.08664 
2401 0 5 9.06528 21.3026 1.34129 
407 0 5 9.0546 21.7662 2.36512 
22676 0 5 9.86392 22.3333 2.48316 
25636 0 5 7.17075 18.6757 2.82494 
10913 0 5 8.18973 18.3322 2.83349 
2426 0 5 7.62961 18.8352 4.30882 
24989 0 5 7.10206 19.9512 3.902 
10822 0 5 10.2881 20.3093 2.626 
9131 0 5 9.82744 19.7727 3.54689 
9446 0 5 7.9375 20.8589 3.9651 
25914 0 5 8.50471 21.3053 3.11366 
23693 0 5 9.31999 21.9977 3.31319 
24909 0 5 10.5263 20.7624 3.65415 
9690 0 5 11.0154 21.0592 2.78911 
19983 0 5 9.2349 19.4451 4.37715 
13591 0 5 9.42389 22.4002 4.42287 
9047 0 5 7.67079 19.814 8.29706 
24333 0 5 9.48295 19.2106 14.9915 
21851 0 5 10.3847 22.1228 14.2976 
8904 0 5 10.6777 20.5 15.415 
26270 0 5 8.35071 21.3662 16.7124 
26014 0 5 9.37535 22.0902 16.1155 
26929 0 5 9.12664 20.9548 16.2931 
6294 0 5 11.1092 21.4565 15.2938 
11548 0 5 9.82853 21.3915 16.9947 
6691 0 5 9.60591 20.4231 17.0299 
21453 0 5 10.9495 20.06 18.3109 
14862 0 5 10.5245 20.789 17.5939 
8572 0 5 10.7383 21.7922 17.4529 
21195 0 5 6.57659 20.5021 21.1145 
15685 0 5 9.54077 20.3044 21.486 
5911 0 5 6.42507 17.027 22.7851 
3045 0 5 8.66034 19.2599 22.768 
18444 0 5 6.35633 17.7488 29.8466 
11741 0 5 8.7105 18.0168 31.262 
2639 0 5 8.47011 21.1905 31.7711 
25976 0 5 8.254 25.0415 2.49621 
16735 0 5 10.7915 23.6921 6.63067 
8389 0 5 6.94987 24.5676 7.94583 
9915 0 5 9.34574 24.4173 7.10292 
16186 0 5 10.851 25.8335 7.44523 
12653 0 5 10.6913 25.57 8.66788 
20009 0 5 11.0401 25.7303 9.65393 
12076 0 5 11.0695 26.8892 9.77904 
15897 0 5 7.1603 22.4413 14.5802 
26229 0 5 11.3681 22.4654 15.146 
4353 0 5 6.91838 25.1238 14.7046 
20962 0 5 8.56686 25.5888 15.1388 
16905 0 5 10.6128 23.3976 16.6183 
2869 0 5 10.187 22.5027 16.6616 
7992 0 5 9.72673 27.2486 15.3641 
22859 0 5 11.1621 22.8857 17.3147 
7669 0 5 10.7007 23.8596 23.1237 
17268 0 5 9.86077 23.5861 25.9138 
15711 0 5 7.27433 25.5459 30.4563 
12654 0 5 9.66192 27.6263 30.3635 
9665 0 5 9.39885 23.8065 32.6746 
7678 0 5 8.02211 24.9543 31.5218 
24279 0 5 10.1884 28.4054 1.27213 
2857 0 5 10.9509 28.7309 1.91648 
900 0 5 9.69197 30.4267 1.09956 
26507 0 5 8.92399 29.6853 1.66621 
14671 0 5 10.2983 30.9817 1.63786 
8294 0 5 11.1096 31.7179 1.31317 
12404 0 5 8.22117 31.7279 6.96901 
21471 0 5 7.72498 28.2839 11.7106 
5606 0 5 7.29527 31.4972 12.4839 
2870 0 5 6.30617 28.0492 14.9489 
4303 0 5 7.57082 27.8447 15.2156 
18762 0 5 9.09708 32.8673 17.8417 
3778 0 5 6.86587 28.3826 21.5794 
24747 0 5 6.78332 32.3931 21.9765 
12907 0 5 7.53734 32.501 20.8485 
25800 0 5 6.22235 31.1414 23.2926 
8190 0 5 6.34943 32.1074 22.7972 
17544 0 5 6.55619 33.199 22.7474 
699 0 5 8.01236 32.8503 26.6881 
16893 0 5 11.2362 31.0084 29.5329 
19291 0 5 6.89247 27.9599 30.2979 
667 0 5 11.3728 30.1313 30.3312 
16849 0 5 9.94333 31.4294 30.9135 
26788 0 5 10.7427 32.0108 31.2637 
6935 0 5 9.9138 33.0606 30.4952 
9003 0 5 6.26001 28.3541 32.5605 
147 0 5 9.51006 28.3396 31.6542 
7292 0 5 10.7621 29.2506 32.2137 
3541 0 5 9.50914 30.5914 31.4697 
5038 0 5 8.78224 29.9066 33.1833 
23406 0 5 11.3764 29.8484 31.5863 
22773 0 5 10.3377 31.2514 33.0882 
234 0 5 11.0798 31.7536 32.4686 
20397 0 5 13.3326 1.19738 5.25375 
15814 0 5 15.9384 5.15573 5.52895 
8603 0 5 16.9137 1.25725 6.63485 
16906 0 5 15.9167 1.77861 10.4795 
14086 0 5 11.9503 3.66658 10.9757 
25918 0 5 12.7914 5.05313 10.0746 
12288 0 5 15.1819 5.28488 12.1114 
23435 0 5 13.2294 2.59036 18.2363 
8839 0 5 15.6583 2.56501 17.8489 
22673 0 5 15.126 4.5519 17.7796 
24742 0 5 12.9112 4.71141 20.3813 
20086 0 5 13.3898 1.56815 21.1569 
8312 0 5 11.7244 3.66816 21.6119 
13483 0 5 12.61 3.5282 20.7915 
10660 0 5 13.7549 3.82116 22.2478 
8255 0 5 14.8287 3.80884 21.8632 
7800 0 5 12.531 5.819 21.4708 
9038 0 5 11.9383 4.48793 20.9691 
6589 0 5 14.1837 5.70747 22.1035 
23168 0 5 14.0451 4.63629 21.6926 
774 0 5 11.7959 4.10986 22.5831 
13711 0 5 14.3387 3.51287 23.8913 
16522 0 5 11.8752 4.94253 24.1857 
20795 0 5 12.2233 5.9295 23.601 
17298 0 5 11.9072 5.03011 23.1338 
12024 0 5 12.3353 5.86865 22.5514 
11695 0 5 13.9054 4.81262 22.8121 
24166 0 5 14.1503 5.7664 23.2488 
11288 0 5 13.8227 4.92428 23.8769 
4329 0 5 13.9639 5.91446 24.3702 
6867 0 5 16.0437 5.1249 24.5856 
13497 0 5 15.0355 2.26998 28.3019 
20675 0 5 13.8852 5.93318 27.8438 
19028 0 5 11.8392 9.83261 3.18768 
3448 0 5 13.2518 9.6881 9.83483 
18953 0 5 13.8874 8.38515 12.9467 
5167 0 5 11.7948 8.74302 16.1192 
17552 0 5 12.6422 6.82711 22.015 
15671 0 5 13.3213 7.1627 21.1677 
761 0 5 11.6852 11.1696 21.2057 
19486 0 5 12.645 6.93569 23.1105 
18474 0 5 12.2869 6.73974 24.2195 
7444 0 5 14.4168 7.6662 22.4596 
8462 0 5 14.3857 8.7547 25.2393 
24024 0 5 12.583 8.08224 26.0449 
8194 0 5 16.2316 10.1071 26.2624 
8338 0 5 12.4029 13.5348 7.87407 
20420 0 5 15.365 16.8028 9.35445 
22455 0 5 12.0303 11.8134 10.5401 
9484 0 5 13.0617 16.0453 10.256 
10953 0 5 16.171 13.0318 17.8516 
19375 0 5 15.0232 12.6159 22.1369 
18615 0 5 12.115 14.2966 21.5263 
17120 0 5 11.7954 13.4126 29.9666 
18512 0 5 15.1776 18.0134 1.7453 
2884 0 5 11.7539 22.1075 3.41548 
8512 0 5 12.1142 17.9024 6.25388 
24652 0 5 14.5433 17.2929 10.3108 
3715 0 5 15.7816 17.3822 10.4213 
17668 0 5 16.2922 20.2412 10.028 
18441 0 5 12.3232 17.252 11.7586 
24620 0 5 15.8986 17.4045 12.3918 
17578 0 5 14.6839 21.3481 14.6814 
6745 0 5 12.6076 22.2345 16.5218 
9337 0 5 11.9791 21.7002 15.857 
23713 0 5 12.455 21.1607 16.7082 
15578 0 5 11.8355 19.9965 21.0905 
10916 0 5 12.8325 17.2465 25.8734 
6653 0 5 14.6014 18.3191 28.2383 
19325 0 5 12.6142 22.9558 3.93033 
8583 0 5 12.7458 25.0934 5.79931 
1929 0 5 12.517 26.7174 5.12206 
26550 0 5 12.9985 25.1532 6.91786 
26278 0 5 12.4556 24.5269 7.54822 
4335 0 5 11.6468 26.5363 6.77408 
24485 0 5 11.6558 24.1826 8.43694 
22209 0 5 13.3433 25.0786 8.00021 
21107 0 5 13.5622 25.2329 8.95697 
21788 0 5 12.412 26.7284 8.50837 
5991 0 5 12.2509 27.5797 9.33119 
20442 0 5 11.6055 26.2497 8.87863 
11625 0 5 15.0103 26.5384 8.39192 
26545 0 5 16.2582 27.1285 13.2315 
2173 0 5 13.0099 23.1888 14.8825 
26231 0 5 16.5881 24.1358 13.973 
26897 0 5 15.1767 25.9106 15.0549 
2934 0 5 15.7141 24.8035 14.7822 
20922 0 5 16.801 26.4427 13.8448 
26506 0 5 12.7199 23.6699 15.9877 
13082 0 5 16.3661 25.6179 15.3108 
15823 0 5 13.1923 26.3263 15.3826 
5051 0 5 11.7183 24.0799 17.0218 
18666 0 5 16.6189 27.6189 17.1994 
24040 0 5 13.2383 24.9641 21.405 
23152 0 5 15.4948 27.1537 21.334 
7521 0 5 13.3161 25.9913 27.3224 
19959 0 5 14.81 26.0154 26.0381 
25210 0 5 15.9415 25.8853 27.3499 
4501 0 5 14.0645 27.6147 26.786 
5783 0 5 14.1239 26.5652 26.6837 
240 0 5 13.4256 27.0676 27.3602 
8645 0 5 15.0432 22.5372 28.095 
25135 0 5 12.4525 26.0032 29.4568 
12336 0 5 14.7571 25.8061 28.9098 
23600 0 5 15.2991 25.4777 27.9972 
24603 0 5 16.6562 24.774 29.1909 
10681 0 5 12.8001 27.7608 27.9041 
24738 0 5 13.8909 26.4387 29.2365 
4316 0 5 14.6598 26.8107 28.6836 
24748 0 5 15.3185 27.4929 28.1365 
24608 0 5 15.394 26.4865 28.0205 
4368 0 5 12.1156 22.4215 29.78 
4519 0 5 11.6489 29.5399 1.40442 
7588 0 5 12.3186 30.2495 0.769757 
14731 0 5 15.6896 31.7789 3.04923 
256 0 5 13.0313 28.2195 7.33948 
15299 0 5 13.4253 30.8683 7.35789 
25643 0 5 14.2966 29.9182 6.87469 
9138 0 5 12.3066 32.7025 11.4278 
8880 0 5 14.1925 33.0208 10.3628 
17566 0 5 16.5046 28.9201 11.7705 
22184 0 5 12.6776 33.0647 12.7068 
3774 0 5 16.9551 28.1553 15.0555 
4091 0 5 12.2234 32.2779 14.9295 
21772 0 5 15.9148 27.9914 16.536 
6976 0 5 16.4412 28.8506 19.3617 
19792 0 5 13.3605 31.4168 19.4366 
20103 0 5 11.8252 32.1091 21.5482 
8382 0 5 14.5943 28.2383 26.2653 
640 0 5 14.3697 29.1422 26.7049 
21415 0 5 16.0831 28.0422 27.4849 
2349 0 5 16.0805 29.1257 27.5738 
3291 0 5 15.2659 30.0089 26.8913 
12673 0 5 12.1435 32.0087 26.1962 
5174 0 5 11.8524 30.1411 29.1414 
25536 0 5 15.4988 29.9788 29.2839 
10550 0 5 13.8481 32.274 28.3909 
4210 0 5 12.131 29.4887 30.869 
3102 0 5 12.2018 30.6039 32.2272 
9916 0 5 11.6624 29.8059 32.6372 
16900 0 5 20.9109 2.2883 5.55335 
19243 0 5 19.1988 2.64327 5.07439 
6929 0 5 17.2599 1.49119 7.77532 
3886 0 5 18.1654 2.13752 7.96157 
1634 0 5 18.7391 2.42987 7.19505 
16941 0 5 18.5244 2.22092 6.2021 
6931 0 5 19.9949 0.979706 6.64988 
15978 0 5 20.1453 1.10901 7.74366 
4013 0 5 20.7379 1.60946 7.07194 
22568 0 5 21.5637 2.1798 6.75234 
579 0 5 19.5563 3.07828 7.39791 
4300 0 5 20.1847 3.53155 6.66328 
11896 0 5 20.5197 3.71535 7.63397 
18726 0 5 21.3113 4.15447 6.84498 
9281 0 5 17.4483 1.74233 8.71244 
15301 0 5 18.2313 2.26433 9.05191 
5948 0 5 19.4948 0.765963 8.44507 
15733 0 5 19.6417 1.0896 9.40695 
24341 0 5 18.9789 2.78396 8.16514 
18476 0 5 19.8257 3.27758 8.5254 
21005 0 5 19.0134 2.97977 9.23574 
3208 0 5 22.0878 3.02882 8.89465 
25316 0 5 21.134 5.65 9.63402 
2483 0 5 17.6886 1.06414 10.4213 
22195 0 5 19.6919 3.09673 10.0803 
26165 0 5 19.8427 1.69544 11.6635 
18842 0 5 21.5881 4.85544 14.109 
23427 0 5 20.2891 2.93275 15.4628 
16507 0 5 20.5054 5.1353 17.9361 
10295 0 5 22.0672 5.80956 17.8651 
23959 0 5 21.0184 5.98382 18.2284 
9136 0 5 18.6413 5.69381 19.3523 
20623 0 5 21.1805 2.60361 25.0521 
25479 0 5 18.875 1.19218 27.1373 
4722 0 5 19.8348 5.47111 29.1321 
15032 0 5 20.4226 3.93094 30.7844 
23264 0 5 19.6522 11.3892 1.27819 
13612 0 5 18.9377 6.33175 8.10489 
17901 0 5 20.7218 8.62942 8.92693 
7226 0 5 21.39 10.7502 9.54524 
18843 0 5 21.6822 10.1043 14.5938 
14396 0 5 21.6701 6.40046 15.81 
15874 0 5 19.5054 9.79134 18.3119 
21869 0 5 17.5881 6.73727 21.7052 
5706 0 5 20.452 10.8308 21.2943 
6832 0 5 21.6565 8.68521 22.5319 
13233 0 5 18.1759 7.72568 24.9913 
3708 0 5 20.7996 7.67932 24.2639 
1659 0 5 18.2858 11.4175 26.5873 
21421 0 5 19.7653 10.2022 28.476 
11078 0 5 18.0884 8.77978 30.2383 
22432 0 5 22.1311 14.5384 7.54059 
1924 0 5 21.871 15.4169 7.01032 
13084 0 5 17.9257 15.557 10.0189 
10418 0 5 20.4092 16.9671 10.1258 
4779 0 5 20.6359 16.8394 12.4877 
24744 0 5 18.6712 15.9129 16.6318 
1069 0 5 20.9269 16.9626 19.6233 
16962 0 5 18.7069 14.4302 22.5896 
18972 0 5 21.0746 14.5123 25.3712 
10581 0 5 20.1159 13.9838 27.8247 
13386 0 5 19.3443 15.7143 26.8072 
6196 0 5 21.4916 16.6954 27.1979 
16694 0 5 18.6712 12.735 27.8705 
22405 0 5 20.8083 13.7662 28.9411 
26719 0 5 21.8097 14.2628 29.0034 
15590 0 5 22.2021 15.1263 28.19 
12851 0 5 22.1596 13.1634 30.6843 
13262 0 5 21.0542 12.8733 30.4286 
3988 0 5 21.4248 13.6374 29.8255 
15890 0 5 22.3858 13.8328 29.9251 
335 0 5 17.6436 15.7932 29.6791 
14711 0 5 22.1459 15.9846 30.2019 
2775 0 5 21.5418 15.3759 30.7881 
9851 0 5 18.872 11.9223 33.2369 
17269 0 5 22.1488 15.004 31.5529 
19685 0 5 17.4716 20.7973 1.76511 
2784 0 5 20.5003 21.6118 1.74362 
1464 0 5 20.783 19.3035 3.74933 
15683 0 5 17.9086 18.2171 5.4832 
14560 0 5 20.209 19.8938 7.08292 
7792 0 5 19.702 21.9556 7.48763 
21534 0 5 20.7895 21.5405 7.62138 
4446 0 5 18.9612 18.7279 9.23389 
3854 0 5 20.7629 17.8587 9.40825 
18629 0 5 18.7692 19.6252 8.69275 
13692 0 5 20.5594 18.8378 8.63534 
23302 0 5 19.2367 20.5398 8.78476 
9351 0 5 20.6329 19.695 7.98361 
21550 0 5 20.9901 19.9475 9.00684 
7234 0 5 21.1635 19.0468 9.60396 
2673 0 5 19.4706 21.4921 9.28554 
4351 0 5 20.9314 20.6375 8.23239 
16914 0 5 19.3041 18.6275 10.3232 
14708 0 5 21.4663 18.3557 11.22 
13191 0 5 21.0881 18.2734 10.2594 
10019 0 5 18.5414 20.0526 10.5064 
19035 0 5 19.5623 19.8513 10.5766 
19596 0 5 19.9884 19.9409 11.5123 
19472 0 5 21.693 20.2431 10.8516 
693 0 5 21.4875 19.2421 10.6347 
9244 0 5 21.473 19.9859 9.79501 
14291 0 5 19.4469 20.6275 9.89258 
1175 0 5 19.8121 21.5673 10.294 
10699 0 5 20.2291 21.9587 11.1456 
12503 0 5 21.6694 20.9488 10.1916 
1079 0 5 22.1314 21.3608 11.2507 
24336 0 5 21.847 22.3303 10.5235 
3751 0 5 19.7919 18.1735 11.9674 
2944 0 5 21.943 18.18 12.1634 
22993 0 5 19.7129 19.3369 12.265 
2309 0 5 22.4157 19.6775 12.7262 
19649 0 5 21.1063 21.0588 12.2671 
24814 0 5 20.8032 21.2663 13.1389 
994 0 5 19.9085 19.8756 15.836 
12919 0 5 19.0144 21.3849 18.3677 
23473 0 5 17.8234 17.5773 21.799 
18516 0 5 19.3244 19.0618 21.2468 
26018 0 5 18.4805 21.4696 21.6516 
8964 0 5 22.0027 21.4929 20.7856 
13697 0 5 22.3659 21.4694 23.9456 
11559 0 5 21.0967 20.1887 25.8363 
9269 0 5 19.8837 21.9778 25.4802 
771 0 5 20.6521 22.2199 24.7349 
17380 0 5 21.939 20.9729 25.3737 
14251 0 5 21.2704 18.633 27.1789 
12216 0 5 18.8693 21.9609 27.0209 
15298 0 5 19.0077 21.3459 26.244 
10616 0 5 21.75 21.4589 26.3236 
5750 0 5 20.4191 21.1893 27.9924 
8565 0 5 19.0465 22.3968 28.7438 
19465 0 5 21.0178 22.2091 28.2687 
6383 0 5 19.3097 17.8065 30.2639 
10785 0 5 21.168 26.988 1.93413 
18857 0 5 21.4545 23.3491 10.4072 
4766 0 5 20.7126 22.8672 10.7848 
21885 0 5 21.3037 26.1854 11.2327 
21478 0 5 19.756 23.4262 12.0275 
589 0 5 18.369 25.962 12.2166 
4773 0 5 20.9925 24.5564 13.3617 
3908 0 5 19.4394 24.1142 14.2655 
8556 0 5 21.0552 22.532 14.0832 
1777 0 5 17.876 26.5005 14.1871 
5512 0 5 17.5812 27.3749 14.7409 
1933 0 5 18.535 27.0393 14.7246 
11478 0 5 17.9987 25.9588 16.2163 
2320 0 5 17.2941 25.3683 15.7109 
949 0 5 18.6801 25.1453 15.7832 
17237 0 5 18.9507 25.8397 16.4858 
20792 0 5 19.9661 25.7155 16.7542 
18662 0 5 19.7739 27.5763 16.756 
24494 0 5 18.9792 27.6384 15.5092 
22069 0 5 18.5254 26.594 17.0561 
8061 0 5 20.6113 24.9866 18.862 
17239 0 5 18.8543 22.6048 21.0518 
23128 0 5 17.2852 22.5082 23.7675 
12022 0 5 20.7702 24.4449 25.1079 
16530 0 5 18.8964 27.5728 25.8319 
1758 0 5 18.4833 22.5171 26.3095 
411 0 5 20.1223 23.4496 26.6128 
25890 0 5 19.6906 22.4843 26.506 
24993 0 5 20.8457 23.9978 26.2426 
26245 0 5 17.0499 27.5687 26.7458 
23890 0 5 20.9814 24.0007 29.3139 
22042 0 5 18.6192 25.0856 27.9454 
11829 0 5 18.3921 26.3589 27.8954 
16536 0 5 22.3194 26.9728 29.515 
11846 0 5 17.2255 26.7904 29.7565 
2923 0 5 19.5795 26.9917 30.2867 
19512 0 5 20.7423 26.5062 30.2218 
8980 0 5 19.24 30.913 1.72118 
26435 0 5 18.2085 32.6221 1.21389 
7777 0 5 20.282 28.2061 2.58755 
26894 0 5 19.5783 31.3408 4.21183 
390 0 5 19.4704 28.5387 5.48281 
15904 0 5 17.3369 31.4478 7.0794 
8454 0 5 17.3158 32.4476 6.54771 
14322 0 5 18.379 32.5094 7.08524 
13529 0 5 19.302 33.1039 7.44244 
5402 0 5 22.3831 30.6714 9.37131 
15218 0 5 18.5909 32.7125 8.17112 
9226 0 5 18.7882 32.9691 9.21159 
20622 0 5 17.0444 32.4616 9.07611 
21792 0 5 18.953 28.1954 10.6159 
10634 0 5 18.7963 33.0951 10.1841 
13842 0 5 17.7396 32.5169 9.90347 
2354 0 5 21.2829 28.4897 13.5069 
5549 0 5 17.9898 28.0395 15.4096 
3278 0 5 21.9241 27.866 18.9673 
13751 0 5 19.6612 32.1362 21.4429 
21048 0 5 17.0029 32.2014 25.351 
18621 0 5 22.0883 29.5089 29.5834 
10306 0 5 21.357 28.8434 27.8876 
7805 0 5 21.8483 30.4583 28.256 
2211 0 5 21.9919 29.0867 30.6158 
12632 0 5 19.9065 30.0385 31.097 
16017 0 5 20.1365 30.464 30.11 
10234 0 5 21.6326 31.287 30.6335 
4383 0 5 20.0605 27.8931 32.0948 
10935 0 5 21.6103 30.8324 31.591 
24168 0 5 22.8957 6.09503 2.99704 
14658 0 5 27.5419 5.12778 8.97145 
1289 0 5 27.5948 3.64388 11.3858 
5683 0 5 24.0644 5.69839 13.2073 
6065 0 5 23.4753 4.7556 17.1923 
21696 0 5 23.1604 5.73423 17.5284 
10046 0 5 24.3416 2.58804 18.9125 
20523 0 5 24.418 0.845203 22.2452 
15458 0 5 27.7197 4.3274 22.3432 
5537 0 5 25.9229 5.25786 21.8846 
6094 0 5 24.2428 1.22166 24.0564 
11073 0 5 22.5521 2.28712 26.016 
710 0 5 25.4012 2.50844 27.3108 
17187 0 5 24.6003 3.09194 31.8019 
8589 0 5 23.4501 6.92647 1.22122 
23074 0 5 27.5697 8.94667 1.2725 
4807 0 5 22.7183 7.24816 3.0873 
22605 0 5 26.2198 8.68805 5.26263 
7077 0 5 24.7758 10.4979 5.95935 
9149 0 5 23.8256 8.17763 7.73327 
14738 0 5 23.0162 9.2446 6.87306 
19840 0 5 24.1651 10.0203 7.08522 
13024 0 5 27.818 7.36951 9.4766 
2864 0 5 25.6716 6.18431 9.80483 
25450 0 5 24.8654 10.9884 10.3419 
4814 0 5 22.498 8.11706 11.6105 
7519 0 5 22.6325 6.59918 15.9033 
8455 0 5 22.5877 9.1023 16.3203 
13668 0 5 22.5327 10.6693 20.1079 
343 0 5 26.4463 10.0466 25.9803 
16635 0 5 27.6963 11.3185 25.284 
9888 0 5 26.4185 9.38782 26.8664 
10671 0 5 27.3476 9.61893 26.2737 
20965 0 5 27.3493 8.97422 27.12 
7567 0 5 22.5411 6.37937 29.3322 
17870 0 5 26.368 6.28767 27.875 
13950 0 5 23.4393 11.4178 29.6927 
15333 0 5 26.5094 8.00402 32.6638 
20701 0 5 24.6894 11.856 2.24991 
2646 0 5 26.3537 15.7505 3.01271 
6220 0 5 22.5771 12.762 5.22728 
12520 0 5 27.498 15.0359 8.53507 
24878 0 5 27.7932 14.5461 15.707 
6304 0 5 23.1791 16.3381 20.4787 
24728 0 5 24.2137 16.6149 20.213 
7859 0 5 25.1963 16.3186 20.6074 
9141 0 5 26.8976 16.8561 20.405 
18395 0 5 24.8783 14.8204 21.5369 
1808 0 5 27.4822 14.9502 21.2256 
24481 0 5 24.0334 16.0014 22.389 
24622 0 5 24.2213 15.6458 20.7957 
25009 0 5 23.2507 15.7272 21.3825 
23500 0 5 25.9093 15.2068 22.2235 
15863 0 5 26.1339 16.216 20.6447 
26657 0 5 26.868 15.5795 21.7684 
4591 0 5 27.0948 15.8752 20.8428 
11900 0 5 27.3846 16.1933 22.4558 
24172 0 5 26.3778 16.5396 22.5435 
12575 0 5 26.3195 15.5392 24.8953 
14142 0 5 25.1553 15.2029 26.399 
3634 0 5 22.8387 14.5648 29.2382 
5116 0 5 22.6801 16.7241 29.4555 
23457 0 5 23.4721 14.3776 30.044 
21540 0 5 24.3103 16.6015 30.3139 
6353 0 5 24.5504 13.2908 32.0776 
16558 0 5 23.7038 15.1148 32.7347 
8774 0 5 26.9756 15.2057 32.6029 
9432 0 5 23.3511 20.9067 1.19205 
6983 0 5 24.1741 18.3913 3.28706 
10596 0 5 25.4534 19.7313 4.99489 
15467 0 5 27.7266 17.7387 7.55794 
25899 0 5 27.3661 20.4482 6.8171 
9150 0 5 26.4868 21.0008 7.67599 
21748 0 5 26.1672 21.7524 8.2389 
17937 0 5 22.9986 20.017 11.703 
21708 0 5 26.872 19.26 15.1266 
16301 0 5 25.5334 19.9308 15.3384 
4496 0 5 26.7724 18.9624 18.2456 
15352 0 5 25.2923 21.221 18.4612 
6958 0 5 23.7206 18.41 19.4388 
6296 0 5 23.9634 17.5054 19.8706 
5586 0 5 24.7173 18.1846 19.5599 
19569 0 5 27.6424 18.4523 19.6824 
20687 0 5 26.4161 18.7025 19.4568 
1423 0 5 27.7075 17.5651 20.1628 
15889 0 5 22.8368 18.8505 19.7986 
22706 0 5 24.4085 19.06 19.0122 
23964 0 5 25.2821 19.9521 19.0078 
9805 0 5 25.4266 18.8974 19.378 
25504 0 5 26.306 19.881 19.064 
5311 0 5 26.9061 20.2117 19.9202 
19694 0 5 24.2844 21.3622 18.8846 
21703 0 5 23.1271 18.323 21.4994 
21492 0 5 22.425 18.11 20.6353 
3015 0 5 24.4568 17.0606 22.1761 
6543 0 5 27.1843 17.316 22.2818 
24315 0 5 26.9851 18.3068 21.8007 
15305 0 5 23.9307 18.8585 21.2454 
14346 0 5 25.5458 19.1403 22.2701 
24983 0 5 24.4882 19.4071 22.0079 
11010 0 5 25.1756 20.2043 21.5795 
14826 0 5 24.7329 19.5293 20.9886 
4647 0 5 26.7652 19.1631 21.4142 
7739 0 5 26.7402 21.782 21.0545 
507 0 5 27.6444 22.3562 21.7233 
12272 0 5 23.6151 18.4953 22.5826 
20995 0 5 25.5735 17.7722 24.1471 
10677 0 5 24.691 18.5053 22.4951 
16048 0 5 25.9782 18.5274 23.4457 
4812 0 5 24.4852 19.8428 22.9618 
21785 0 5 23.0722 18.4117 24.4263 
944 0 5 27.8353 21.8263 24.5037 
17661 0 5 24.6895 17.7688 27.7452 
13080 0 5 26.9091 21.607 29.3344 
18902 0 5 23.1325 19.0657 31.0422 
2200 0 5 24.5425 27.3402 1.83254 
23449 0 5 23.0445 24.0186 4.65192 
3115 0 5 26.2272 26.1327 8.54098 
8366 0 5 27.6332 22.5192 14.7063 
19849 0 5 24.5294 25.1111 18.7971 
6109 0 5 23.4066 24.7731 21.2985 
391 0 5 26.0018 26.687 21.1895 
7317 0 5 24.9793 27.4255 22.4037 
8972 0 5 24.148 25.2605 25.6178 
7299 0 5 24.2617 24.8299 24.5157 
10971 0 5 27.5906 22.6548 28.3956 
21319 0 5 27.8338 27.2704 31.0103 
5000 0 5 23.3355 23.8736 31.4823 
24922 0 5 26.8705 29.1367 1.27037 
8469 0 5 23.0429 30.5508 1.67184 
509 0 5 26.5562 30.437 2.46339 
23542 0 5 27.5547 30.5882 2.36517 
24634 0 5 26.866 29.3655 3.80453 
10830 0 5 25.5081 30.5875 4.03731 
8777 0 5 27.1124 31.5705 3.22724 
26829 0 5 27.7191 31.2786 5.22569 
2939 0 5 26.658 31.3907 5.0513 
13797 0 5 27.331 30.3263 4.47834 
26395 0 5 24.5219 29.3099 6.29029 
13517 0 5 24.443 28.3354 10.4456 
26081 0 5 24.4174 28.6403 15.2331 
20238 0 5 26.5567 30.7581 16.5639 
12069 0 5 23.6041 30.412 19.6218 
11724 0 5 27.398 32.6632 19.4319 
15858 0 5 27.7152 31.533 21.7618 
25197 0 5 27.6562 32.468 21.9348 
9502 0 5 27.2955 31.6708 22.73 
12420 0 5 23.6787 28.2563 25.8636 
26257 0 5 22.4695 28.5672 29.4643 
1786 0 5 28.062 2.48323 8.26927 
773 0 5 28.725 4.37425 9.99982 
2893 0 5 30.5957 1.39607 20.1602 
23879 0 5 30.0427 4.44828 18.9267 
3753 0 5 29.2024 1.25459 21.7522 
3712 0 5 28.699 1.10545 20.7303 
21780 0 5 30.5726 1.56192 21.7501 
22427 0 5 31.4792 3.3179 20.7422 
22095 0 5 29.8676 1.73343 22.4363 
24218 0 5 31.033 5.14823 24.2831 
3982 0 5 31.5296 4.06097 29.8036 
24114 0 5 30.3241 8.9807 1.15704 
6949 0 5 30.9696 6.86527 9.17938 
5359 0 5 32.2517 7.64904 11.363 
8845 0 5 29.6477 6.67736 12.273 
16381 0 5 29.2099 9.5536 12.8953 
6112 0 5 28.1642 8.55772 14.0132 
2414 0 5 29.0866 10.8273 15.9203 
17824 0 5 27.9746 10.7753 15.7164 
19127 0 5 31.2166 9.80708 15.2753 
4313 0 5 30.7161 10.8991 19.7126 
6409 0 5 30.1097 6.53155 21.1204 
17880 0 5 27.9596 9.61692 21.6006 
13690 0 5 33.2484 6.78585 25.398 
996 0 5 28.2602 8.49821 27.4866 
25577 0 5 29.1424 8.94574 26.0943 
344 0 5 28.1604 9.0138 26.5256 
11958 0 5 28.9463 10.5286 27.5322 
8330 0 5 30.4801 10.1385 27.0606 
19823 0 5 28.2433 7.88247 28.4143 
1771 0 5 29.1989 7.93598 27.9897 
6198 0 5 27.8801 9.91487 29.0654 
3900 0 5 28.9123 10.0059 28.3549 
3105 0 5 28.0907 10.5308 28.1395 
15120 0 5 27.8874 8.72666 30.2902 
25661 0 5 28.2916 11.5472 31.6275 
23131 0 5 29.992 15.0303 6.64639 
17389 0 5 31.3962 16.1333 7.77763 
6982 0 5 31.3246 15.4083 9.70973 
11743 0 5 30.8564 12.0736 10.329 
26567 0 5 30.001 15.3421 10.2809 
6639 0 5 29.4955 12.2029 14.4935 
11932 0 5 30.4608 12.7354 15.111 
12660 0 5 30.1474 12.367 16.9627 
25680 0 5 28.0056 13.6965 16.9884 
26209 0 5 30.7387 13.1314 17.5427 
5522 0 5 31.1774 14.0247 17.5391 
8024 0 5 30.5788 14.8748 19.2403 
22 0 5 29.6065 15.6266 19.2734 
25981 0 5 33.1636 12.7902 21.5641 
10399 0 5 28.1938 13.8015 23.6219 
12555 0 5 28.1212 16.9272 27.4905 
18707 0 5 29.7843 14.57 29.918 
20338 0 5 30.8571 17.223 1.69386 
26523 0 5 32.127 19.9751 2.15507 
530 0 5 29.8306 20.9701 1.28873 
16529 0 5 30.7832 20.2229 4.05292 
2727 0 5 29.214 20.7427 3.12425 
24085 0 5 32.4945 18.3231 4.81076 
19910 0 5 28.7395 18.2183 7.15573 
26414 0 5 28.6969 17.233 7.60218 
23786 0 5 29.8578 18.5915 6.80045 
9827 0 5 29.7679 17.6189 7.52635 
14465 0 5 30.7252 18.1591 7.2456 
12106 0 5 31.4699 17.5452 6.67169 
9298 0 5 28.9034 19.1353 6.66393 
18338 0 5 30.7754 19.1243 6.86467 
13706 0 5 30.729 20.1461 6.41728 
18448 0 5 32.6061 20.3019 6.52971 
10344 0 5 29.567 18.4718 9.09144 
22653 0 5 32.4034 17.9896 8.65535 
6940 0 5 31.6412 17.7344 9.48293 
15107 0 5 28.6203 18.8894 8.85899 
20938 0 5 29.3415 19.4976 8.64365 
22713 0 5 30.2382 20.2579 8.52612 
8776 0 5 30.3013 19.1582 8.76739 
9239 0 5 31.1983 19.7851 8.68907 
22637 0 5 30.948 20.7837 8.01818 
8070 0 5 29.9412 21.2049 8.07136 
8290 0 5 28.7076 18.7494 10.0247 
3978 0 5 28.491 21.4528 10.6496 
11908 0 5 29.9932 19.9997 11.835 
19827 0 5 31.4167 22.1907 12.1698 
17282 0 5 31.0312 18.2658 13.9276 
2245 0 5 30.8361 21.246 16.6361 
5247 0 5 32.53 21.8713 16.5475 
14818 0 5 28.9591 19.5947 18.4865 
2942 0 5 27.8951 22.3816 17.0376 
1612 0 5 30.9737 21.2395 20.1786 
10701 0 5 28.306 18.9306 24.9155 
16747 0 5 32.6322 17.1121 27.3816 
16918 0 5 32.0995 19.5516 29.4232 
19078 0 5 30.5774 22.2986 29.6031 
4221 0 5 32.479 17.2982 30.6368 
14858 0 5 32.443 21.0907 31.6409 
5663 0 5 28.7505 24.5269 1.14951 
12815 0 5 29.3656 25.5649 5.73644 
3106 0 5 29.3212 22.5826 7.67587 
19438 0 5 28.5442 25.3773 8.83037 
22795 0 5 27.9857 24.8089 10.1995 
8208 0 5 28.1673 26.6809 10.7835 
1940 0 5 31.6455 23.4355 14.3276 
12201 0 5 32.6168 24.1613 14.6751 
13571 0 5 29.6519 27.6423 13.9106 
15307 0 5 28.7142 24.0022 16.1244 
3540 0 5 32.8459 24.0087 15.7377 
15919 0 5 31.8628 23.6877 16.4212 
24056 0 5 30.7427 22.9871 17.1853 
10673 0 5 31.785 22.882 18.6848 
21400 0 5 28.4184 27.1137 17.5557 
20403 0 5 30.9106 24.0899 18.9872 
24311 0 5 32.7192 27.8283 21.5631 
2353 0 5 30.6778 23.9703 25.2717 
17994 0 5 32.3199 26.7019 25.2009 
5669 0 5 29.3956 27.5592 29.3225 
14004 0 5 32.5753 27.0446 28.1692 
17576 0 5 30.8552 24.1329 30.223 
7638 0 5 28.8679 29.0493 0.954944 
5257 0 5 29.6889 29.5139 1.38121 
9535 0 5 30.735 28.7425 1.9387 
243 0 5 28.1439 29.8413 1.80289 