475
Atoms. Timestep: 0
H 9.866370 3.991250 7.941490
H 9.830990 3.997240 7.934500
H 11.020800 4.179160 7.639210
H 11.051200 4.190080 7.637360
H 9.467860 4.892090 7.622860
H 9.449290 4.907270 7.621420
H 9.592720 5.825960 7.193720
H 9.592080 5.842650 7.201270
H 10.814300 5.778980 6.989770
H 10.428000 4.954580 7.421620
H 10.444500 4.953720 7.416660
H 10.813900 5.777320 7.004220
H 11.421100 5.015340 7.210470
H 11.406700 5.001900 7.221810
H 10.634900 3.356420 8.056610
H 10.681400 3.364810 8.064250
H 10.207500 6.542620 6.769070
H 10.221100 6.552750 6.786630
H 11.147400 6.850050 6.462690
H 11.167800 6.847300 6.488590
H 13.249400 4.204720 7.227210
H 11.999500 4.226480 7.439400
H 12.027800 4.251700 7.431160
H 13.221400 4.161150 7.242350
H 12.634600 3.488060 7.651860
H 12.592300 3.451050 7.656990
H 11.645600 3.156500 7.955030
H 11.694700 3.180630 7.958240
H 12.385400 5.049220 7.022000
H 12.397600 5.076960 7.004270
H 11.792600 5.824640 6.804410
H 11.790900 5.840600 6.783570
H 12.975700 6.039420 6.479440
H 12.982500 6.006560 6.509120
H 13.374200 5.138580 6.798070
H 13.364200 5.096530 6.822200
H 12.160700 6.665860 6.356680
H 12.178500 6.647380 6.387010
H 12.230100 24.010600 9.566740
H 12.221100 24.039000 9.565480
H 12.975800 23.594900 9.013110
H 12.974500 23.577900 8.991880
H 13.908200 23.645300 8.566030
H 13.898900 23.637200 8.529520
H 14.755700 24.172600 8.303550
H 14.768600 24.176600 8.344050
H 12.938300 24.712500 9.489240
H 12.930200 24.739700 9.485780
H 13.646400 25.414300 9.411740
H 13.639300 25.440300 9.406080
H 13.773800 24.542800 8.986060
H 13.772700 24.525700 8.970630
H 14.482800 25.243400 8.906360
H 14.480800 25.227600 8.893130
H 15.326400 25.046600 8.406630
H 15.315200 25.040800 8.374520
H 15.427600 26.009100 8.723410
H 15.432100 26.022000 8.737020
H 14.348300 26.141000 9.326380
H 14.354600 26.116100 9.334240
H 15.057400 26.841600 9.246680
H 15.062700 26.817900 9.256740
H 11.865200 24.819500 10.100100
H 11.846500 24.858600 10.075100
H 12.795700 25.637200 9.905810
H 11.977600 25.787700 10.449000
H 12.812000 25.601000 9.930350
H 11.952200 25.834000 10.405500
H 13.370300 27.235400 10.246100
H 12.537100 26.655900 10.519900
H 12.510000 26.704000 10.468100
H 13.393900 27.191400 10.294000
H 13.504800 26.337800 9.826100
H 13.520200 26.302800 9.852850
H 14.318300 27.250700 9.831600
H 14.302800 27.285700 9.799050
H 1.064590 6.812750 0.981320
H 1.080920 6.841590 0.986029
H 2.098430 6.760680 0.963649
H 2.114730 6.795200 0.955423
H 2.007020 6.941070 29.623900
H 2.041260 6.935430 29.632300
H 0.973206 6.987460 29.654500
H 1.007420 6.987500 29.649900
H 1.280170 6.930800 30.610400
H 1.258590 6.939400 30.611800
H 2.230360 6.886340 30.841700
H 2.248590 6.870510 30.852400
H 2.916750 6.881350 30.114500
H 2.944250 6.866920 30.134000
H 3.458650 6.824310 30.994800
H 3.474440 6.800340 31.020800
H 0.857579 6.896320 32.296200
H 1.552920 6.874090 31.570800
H 1.825680 6.817390 32.531300
H 1.543970 6.891330 31.569000
H 1.829350 6.843270 32.526200
H 2.521340 6.813800 31.812900
H 2.515740 6.838280 31.799000
H 0.857260 6.877680 32.289200
H 2.995610 6.774570 32.939900
H 2.986100 6.739000 32.959300
H 3.489760 6.753510 32.054900
H 3.487510 6.785220 32.029000
H 1.452220 27.372400 3.945830
H 1.469780 27.365100 3.912960
H 2.355950 27.785500 3.205100
H 2.406310 27.778900 3.202910
H 2.523080 27.212500 4.018760
H 2.494400 27.233400 3.981200
H 2.474710 27.234100 4.030900
H 1.500740 27.351500 3.933190
H 3.433550 27.391200 3.673430
H 3.446800 27.404000 3.612830
H 3.482850 27.376900 3.667120
H 4.071820 27.801700 2.969200
H 4.122870 27.800800 2.972490
H 4.071760 27.831100 2.906540
H 1.096250 29.313600 1.107000
H 1.040830 29.282400 1.085170
H 1.002850 29.318800 1.090630
H 2.118430 28.888200 1.553500
H 1.613840 28.840100 1.721180
H 2.172780 28.911600 1.571210
H 1.319870 28.604400 2.084350
H 1.372880 28.617500 2.094350
H 2.224820 28.361400 2.351730
H 2.289550 28.345300 2.387060
H 2.237190 28.336800 2.379300
H 1.236310 28.341900 2.501790
H 2.056010 29.478000 0.755363
H 2.602350 28.859500 1.571110
H 3.802180 28.959100 1.277070
H 3.834310 28.904400 1.317600
H 3.889340 28.933600 1.340790
H 3.035750 28.620600 1.848450
H 3.089440 28.639400 1.863930
H 4.271660 28.370600 2.121000
H 3.213330 28.380800 2.201660
H 4.218510 28.355600 2.106910
H 4.201840 28.400300 2.051590
H 2.979870 29.357700 0.790493
H 3.078360 29.339000 0.840936
H 3.022160 29.301200 0.812777
H 1.489650 28.051100 2.910200
H 1.438630 28.053000 2.910150
H 1.847300 27.863200 3.132350
H 3.206210 28.073000 2.679780
H 3.154510 28.069300 2.674250
H 2.835810 27.882700 2.982280
H 1.955250 29.489400 33.250300
H 1.999670 29.439500 33.255700
H 2.159230 2.187840 16.859800
H 2.087620 2.291720 16.859300
H 1.385960 3.052720 16.839200
H 1.443070 2.935410 16.849100
H 3.940580 2.095390 17.586000
H 4.021110 2.023140 17.571500
H 3.102860 1.853930 17.124200
H 3.022670 1.941310 17.132700
H 1.105710 4.020410 17.077700
H 2.523140 3.057900 17.331900
H 2.032190 3.922240 17.441100
H 2.077230 3.813970 17.450700
H 1.146280 3.896320 17.094900
H 2.583700 2.959730 17.333200
H 3.514640 2.877380 17.689000
H 3.449630 2.959740 17.695200
H 3.885150 3.725920 18.167800
H 2.958670 3.824080 17.804400
H 3.939110 3.649260 18.162400
H 3.008170 3.731620 17.806500
H 4.595390 2.712670 18.097900
H 4.667950 2.650140 18.081700
H 4.811640 3.627760 18.531200
H 4.870050 3.566910 18.518200
H 1.321960 4.935490 17.510900
H 2.467720 4.688420 17.913600
H 2.501700 4.585850 17.924100
H 1.348380 4.813100 17.531400
H 1.995220 5.440090 18.041600
H 1.976760 5.552770 18.022800
H 3.394200 4.590260 18.277000
H 3.432640 4.503500 18.279900
H 2.894670 5.706850 18.476200
H 2.913480 5.609300 18.488800
H 3.857110 5.275390 18.753300
H 3.829730 5.356440 18.749600
H 4.531390 4.595440 18.769700
H 4.573270 4.527820 18.764000
H 7.405800 1.677770 21.827800
H 8.353800 0.997995 22.246400
H 9.329620 1.227410 21.517600
H 8.372800 1.618980 21.462700
H 6.687720 1.388020 22.515100
H 6.410980 0.827372 23.340200
H 7.511270 0.882514 22.772500
H 10.019900 33.136000 21.977700
H 7.492270 32.789600 23.556100
H 6.649730 32.674100 24.082300
H 8.315810 32.284100 23.813600
H 9.158350 32.399500 23.287400
H 8.334810 32.905000 23.030000
H 9.177350 33.020500 22.503800
H 9.981900 31.894000 23.544900
H 10.258600 32.454700 22.719700
H 7.340000 32.054600 24.542400
H 9.263820 31.604300 24.232100
H 8.296820 31.663100 24.597200
H 1.392590 15.171800 8.874290
H 1.435410 15.160600 8.867820
H 2.296680 14.731900 9.121200
H 2.338650 14.730900 9.135040
H 1.397310 15.084700 10.872400
H 1.405550 15.093500 10.866500
H 1.846990 14.908300 9.996820
H 1.872100 14.912200 10.000800
H 2.300770 14.656500 10.851600
H 2.312790 14.672900 10.866000
H 2.991870 14.398400 9.866220
H 2.959780 14.386600 9.837340
H 3.220030 14.252200 10.865400
H 3.204230 14.228300 10.830800
H 0.964860 15.332900 10.001300
H 0.943537 15.336600 10.017600
H 1.846240 14.854200 11.731700
H 1.851080 14.832900 11.727300
H 1.402030 14.997700 12.870600
H 1.375690 15.026500 12.865200
H 2.286930 14.614800 12.596900
H 2.304860 14.581100 12.582100
H 2.962010 14.331400 11.864900
H 2.964510 14.299500 11.835500
H 0.947626 15.261100 11.748100
H 0.938998 15.274900 11.732300
H 5.001440 18.001400 23.878800
H 4.989070 18.621900 23.050200
H 5.598480 20.140500 23.618100
H 5.347100 19.188400 23.792400
H 5.168570 19.546000 22.619300
H 5.491840 20.526100 22.701600
H 5.872260 21.299500 23.275100
H 5.202360 17.850700 24.883200
H 5.538000 18.210300 25.794200
H 5.453750 18.802800 24.708900
H 5.705130 19.754900 24.534700
H 5.811780 19.369300 25.451200
H 6.063160 20.321400 25.276900
H 5.956510 20.707000 24.360400
H 5.918420 18.983800 26.367700
H 6.207900 21.659100 24.186100
H 6.408820 21.508500 25.190500
H 6.421190 20.888000 26.019200
H 6.241690 19.963900 26.450000
H 10.651900 20.576400 15.908300
H 10.704200 20.600700 15.887200
H 10.590400 21.315400 16.901400
H 11.506500 20.957100 16.721100
H 9.829510 21.067000 16.301900
H 9.888430 21.101000 16.282200
H 10.650800 21.330900 16.887200
H 11.561600 20.959200 16.707300
H 9.591530 22.304200 17.852000
H 9.414930 21.690700 17.016800
H 9.519210 22.280400 17.861300
H 9.481150 21.724500 17.001300
H 11.413100 21.560800 17.492200
H 11.351400 21.563800 17.500800
H 10.502300 21.932500 17.672100
H 10.435300 21.922100 17.681100
H 11.264700 22.162400 18.277100
H 11.196200 22.170500 18.280500
H 10.190000 22.684700 18.606300
H 10.114400 22.678000 18.609300
H 11.041100 22.777100 19.060200
H 11.116200 22.764100 19.062000
H 11.661700 20.350400 15.941400
H 12.588300 20.449600 16.392400
H 12.636200 20.437000 16.378100
H 11.710000 20.357600 15.922400
H 12.267400 21.205500 17.320600
H 12.323900 21.189200 17.312300
H 12.112300 21.812200 18.100300
H 12.175400 21.790800 18.097200
H 12.937800 22.020700 18.702200
H 12.873200 22.060600 18.699700
H 13.345100 21.397100 17.983000
H 13.234700 20.817500 17.132400
H 13.287800 21.436900 17.984900
H 13.183500 20.847200 17.140300
H 12.050900 22.551100 19.093300
H 12.122000 22.521000 19.097100
H 1.794700 25.632400 9.627590
H 1.774410 25.632900 9.635730
H 2.729760 25.688300 9.240640
H 2.754870 25.694500 9.245390
H 3.691310 26.071000 9.269910
H 3.714100 26.081500 9.289320
H 4.401420 26.678300 9.715690
H 4.415380 26.689800 9.747610
H 1.081260 25.919600 10.349300
H 1.090870 25.912000 10.333500
H 0.831978 26.458300 11.174000
H 0.836016 26.471600 11.190200
H 2.273040 26.269900 10.231700
H 2.263660 26.271300 10.230000
H 1.791680 26.682800 11.004900
H 1.794460 26.690600 11.007300
H 3.242160 27.548000 11.418700
H 3.232750 26.494400 10.062500
H 2.752910 26.909600 10.824400
H 3.711090 27.131800 10.666600
H 3.711360 27.128600 10.641400
H 2.751390 26.907300 10.835700
H 3.222110 26.490300 10.047100
H 3.229730 27.544800 11.439800
H 4.669810 27.347700 10.458500
H 4.670790 27.356400 10.497500
H 2.283710 27.328900 11.601600
H 1.087390 27.124800 11.923800
H 1.104410 27.140900 11.933000
H 1.814510 27.748300 12.378800
H 1.788670 27.733100 12.382100
H 2.270030 27.320200 11.608900
H 4.424570 27.899600 11.299400
H 4.411900 27.902600 11.338000
H 3.708080 28.182200 12.043900
H 3.731410 28.186300 12.013000
H 2.747910 28.120200 12.426100
H 2.776060 28.130900 12.408100
H 15.774300 1.970500 14.964500
H 16.390500 2.770650 15.192400
H 15.356200 1.059050 15.222000
H 15.880900 0.917802 16.335900
H 16.776600 2.400100 16.310200
H 16.513600 1.555100 16.775900
H 16.144000 1.762800 15.870200
H 16.883300 1.347400 17.681600
H 15.479300 32.371500 16.805500
H 15.248200 32.808500 15.895900
H 16.636800 32.867600 18.359400
H 15.987600 32.393100 17.707200
H 16.250600 33.238100 17.241500
H 17.039700 3.245100 15.844500
H 17.547900 3.266710 16.746300
H 17.671000 2.051150 18.329700
H 17.252900 1.139690 18.587200
H 17.146300 2.192390 17.215900
H 17.779000 2.829690 17.655900
H 11.472400 8.400280 30.816200
H 14.015100 6.112240 31.364100
H 13.861900 7.365430 29.518500
H 14.820200 6.583210 29.594800
H 14.577500 7.239120 28.831400
H 13.951300 7.962720 28.436200
H 12.277400 8.871250 29.046900
H 13.127900 8.025930 29.360300
H 13.109400 8.560120 28.515100
H 13.146300 7.491750 30.205500
H 12.430700 7.618060 30.892600
H 13.164700 6.957560 31.050700
H 13.880300 6.831250 30.363700
H 14.614300 6.170750 30.521800
H 11.678300 8.812750 29.889200
H 12.412300 8.152250 30.047400
H 11.715100 7.744370 31.579600
H 12.341300 7.020770 31.974800
H 13.183200 6.423370 31.895900
H 16.905000 14.683500 0.984883
H 16.210200 15.181000 1.504260
H 16.207500 15.139200 2.503400
H 14.823300 16.217800 1.543850
H 15.518100 15.720300 1.024480
H 15.407500 15.749000 2.258540
H 16.218400 15.306300 31.034900
H 15.416900 15.893800 31.325400
H 16.907700 14.725200 32.513800
H 14.828700 16.301400 32.073600
H 14.611500 16.420000 33.078900
H 16.212900 15.222800 33.033100
H 15.520800 15.762100 32.553400
H 16.215600 15.264600 32.034000
H 13.165200 0.849799 27.644200
H 13.115800 0.829289 27.581700
H 12.923400 0.930910 29.357400
H 12.898100 0.947872 29.295900
H 12.850200 1.926600 29.300000
H 12.803800 1.940170 29.215300
H 13.009500 1.612970 28.326200
H 12.954800 1.605820 28.247200
H 12.703400 1.742750 30.226700
H 12.730200 1.706630 30.304500
H 12.681600 1.012020 31.070600
H 12.680400 1.066460 31.010200
H 13.304400 31.372700 27.742900
H 13.311600 31.386500 27.759200
H 13.275800 32.369600 27.436700
H 13.243800 32.346700 27.397100
H 13.263000 30.691900 28.525300
H 13.281500 30.696400 28.526500
H 13.143000 30.471900 29.529800
H 13.181000 30.499000 29.537800
H 13.069800 31.467600 29.472400
H 13.086700 31.491300 29.457200
H 12.996600 32.463300 29.414900
H 12.992400 32.483600 29.376600
H 13.054100 32.920500 28.479100
H 13.080900 32.920600 28.529600
H 13.154100 31.924900 28.587000
H 13.148400 31.928200 28.559700
H 13.030100 30.833400 30.505900
H 12.983800 30.785500 30.503600
H 12.869000 31.609900 31.171400
H 12.828000 31.548700 31.185600
H 12.912300 32.006000 30.300200
H 12.741100 32.620500 31.356000
H 12.717400 32.556900 31.393200
H 12.930700 32.046800 30.274000
H 12.839100 33.001700 30.242800
H 12.836400 33.039100 30.193400
H 16.599800 9.021730 14.425600
H 16.601400 9.064550 14.365600
H 16.682000 8.529520 16.362400
H 16.686400 8.538850 16.293400
H 16.446500 8.624860 15.290000
H 16.446400 8.595140 15.356300
H 17.109600 9.740100 13.767900
H 17.100900 9.694980 13.819400
H 17.260700 9.504670 14.975300
H 17.248800 9.482000 15.031300
H 17.856700 10.188400 14.668700
H 17.877400 10.207600 14.621000
H 17.835000 10.470500 13.657100
H 17.815600 10.434500 13.700300
H 18.583000 11.060000 14.062900
H 18.552400 11.042100 14.100200
H 19.113700 11.355000 14.911800
H 19.153500 11.350700 14.876500
H 17.939000 9.696160 16.605500
H 17.289900 9.235890 15.999700
H 17.303100 9.241820 15.939200
H 17.962400 9.681940 16.548900
H 17.897900 9.942270 15.637100
H 17.919900 9.944790 15.585000
H 18.546900 10.402500 16.242900
H 18.536700 10.647800 15.230700
H 18.505800 10.648600 15.274500
H 18.579200 10.384900 16.194700
H 19.195900 10.862800 16.848600
H 19.349300 11.289400 15.917800
H 19.393300 11.264700 15.880000
H 19.238400 10.825000 16.804400
H 17.256800 8.829550 17.107000
H 17.243300 8.842430 17.174000
H 17.980100 9.450050 17.573900
H 18.004900 9.419090 17.512800
H 11.494100 8.386260 30.803500
H 14.055600 6.126010 31.378800
H 13.875300 7.333230 29.505200
H 14.584200 7.194180 28.813700
H 13.949700 7.904580 28.408000
H 14.838800 6.558310 29.590000
H 12.277400 8.818560 29.014700
H 13.135900 7.985710 29.339200
H 13.105400 8.499140 28.481500
H 13.166500 7.472280 30.196800
H 13.197000 6.958850 31.054400
H 12.457600 7.611330 30.888300
H 14.645300 6.167320 30.528900
H 13.905900 6.819800 30.362800
H 11.687600 8.777240 29.864600
H 12.427100 8.124760 30.030700
H 11.748800 7.750380 31.579900
H 12.383200 7.039980 31.985600
H 13.227600 6.445420 31.912000
950
Atoms. Timestep: 0
H 9.866370 3.991250 7.941490
H 9.830990 3.997240 7.934500
H 11.020800 4.179160 7.639210
H 11.051200 4.190080 7.637360
H 9.467860 4.892090 7.622860
H 9.449290 4.907270 7.621420
H 9.592720 5.825960 7.193720
H 9.592080 5.842650 7.201270
H 10.814300 5.778980 6.989770
H 10.428000 4.954580 7.421620
H 10.444500 4.953720 7.416660
H 10.813900 5.777320 7.004220
H 11.421100 5.015340 7.210470
H 11.406700 5.001900 7.221810
H 10.634900 3.356420 8.056610
H 10.681400 3.364810 8.064250
H 10.207500 6.542620 6.769070
H 10.221100 6.552750 6.786630
H 11.147400 6.850050 6.462690
H 11.167800 6.847300 6.488590
H 13.249400 4.204720 7.227210
H 11.999500 4.226480 7.439400
H 12.027800 4.251700 7.431160
H 13.221400 4.161150 7.242350
H 12.634600 3.488060 7.651860
H 12.592300 3.451050 7.656990
H 11.645600 3.156500 7.955030
H 11.694700 3.180630 7.958240
H 12.385400 5.049220 7.022000
H 12.397600 5.076960 7.004270
H 11.792600 5.824640 6.804410
H 11.790900 5.840600 6.783570
H 12.975700 6.039420 6.479440
H 12.982500 6.006560 6.509120
H 13.374200 5.138580 6.798070
H 13.364200 5.096530 6.822200
H 12.160700 6.665860 6.356680
H 12.178500 6.647380 6.387010
H 12.230100 24.010600 9.566740
H 12.221100 24.039000 9.565480
H 12.975800 23.594900 9.013110
H 12.974500 23.577900 8.991880
H 13.908200 23.645300 8.566030
H 13.898900 23.637200 8.529520
H 14.755700 24.172600 8.303550
H 14.768600 24.176600 8.344050
H 12.938300 24.712500 9.489240
H 12.930200 24.739700 9.485780
H 13.646400 25.414300 9.411740
H 13.639300 25.440300 9.406080
H 13.773800 24.542800 8.986060
H 13.772700 24.525700 8.970630
H 14.482800 25.243400 8.906360
H 14.480800 25.227600 8.893130
H 15.326400 25.046600 8.406630
H 15.315200 25.040800 8.374520
H 15.427600 26.009100 8.723410
H 15.432100 26.022000 8.737020
H 14.348300 26.141000 9.326380
H 14.354600 26.116100 9.334240
H 15.057400 26.841600 9.246680
H 15.062700 26.817900 9.256740
H 11.865200 24.819500 10.100100
H 11.846500 24.858600 10.075100
H 12.795700 25.637200 9.905810
H 11.977600 25.787700 10.449000
H 12.812000 25.601000 9.930350
H 11.952200 25.834000 10.405500
H 13.370300 27.235400 10.246100
H 12.537100 26.655900 10.519900
H 12.510000 26.704000 10.468100
H 13.393900 27.191400 10.294000
H 13.504800 26.337800 9.826100
H 13.520200 26.302800 9.852850
H 14.318300 27.250700 9.831600
H 14.302800 27.285700 9.799050
H 1.064590 6.812750 0.981320
H 1.080920 6.841590 0.986029
H 2.098430 6.760680 0.963649
H 2.114730 6.795200 0.955423
H 2.007020 6.941070 29.623900
H 2.041260 6.935430 29.632300
H 0.973206 6.987460 29.654500
H 1.007420 6.987500 29.649900
H 1.280170 6.930800 30.610400
H 1.258590 6.939400 30.611800
H 2.230360 6.886340 30.841700
H 2.248590 6.870510 30.852400
H 2.916750 6.881350 30.114500
H 2.944250 6.866920 30.134000
H 3.458650 6.824310 30.994800
H 3.474440 6.800340 31.020800
H 0.857579 6.896320 32.296200
H 1.552920 6.874090 31.570800
H 1.825680 6.817390 32.531300
H 1.543970 6.891330 31.569000
H 1.829350 6.843270 32.526200
H 2.521340 6.813800 31.812900
H 2.515740 6.838280 31.799000
H 0.857260 6.877680 32.289200
H 2.995610 6.774570 32.939900
H 2.986100 6.739000 32.959300
H 3.489760 6.753510 32.054900
H 3.487510 6.785220 32.029000
H 32.620400 7.008100 30.198100
H 32.647800 7.009180 30.182300
H 32.144100 6.994670 31.086700
H 32.128500 6.997440 31.109000
H 33.112500 6.934380 31.328800
H 33.100200 6.944390 31.339000
H 32.699200 6.901310 33.023500
H 32.689600 6.881260 33.007600
H 32.159400 6.947850 32.120900
H 32.157300 6.958360 32.143200
H 1.452220 27.372400 3.945830
H 1.469780 27.365100 3.912960
H 2.355950 27.785500 3.205100
H 2.406310 27.778900 3.202910
H 2.523080 27.212500 4.018760
H 2.494400 27.233400 3.981200
H 2.474710 27.234100 4.030900
H 1.500740 27.351500 3.933190
H 3.433550 27.391200 3.673430
H 3.446800 27.404000 3.612830
H 3.482850 27.376900 3.667120
H 4.071820 27.801700 2.969200
H 4.122870 27.800800 2.972490
H 4.071760 27.831100 2.906540
H 1.096250 29.313600 1.107000
H 1.040830 29.282400 1.085170
H 1.002850 29.318800 1.090630
H 2.118430 28.888200 1.553500
H 1.613840 28.840100 1.721180
H 2.172780 28.911600 1.571210
H 1.319870 28.604400 2.084350
H 1.372880 28.617500 2.094350
H 2.224820 28.361400 2.351730
H 2.289550 28.345300 2.387060
H 2.237190 28.336800 2.379300
H 1.236310 28.341900 2.501790
H 2.056010 29.478000 0.755363
H 2.602350 28.859500 1.571110
H 3.802180 28.959100 1.277070
H 3.834310 28.904400 1.317600
H 3.889340 28.933600 1.340790
H 3.035750 28.620600 1.848450
H 3.089440 28.639400 1.863930
H 4.271660 28.370600 2.121000
H 3.213330 28.380800 2.201660
H 4.218510 28.355600 2.106910
H 4.201840 28.400300 2.051590
H 2.979870 29.357700 0.790493
H 3.078360 29.339000 0.840936
H 3.022160 29.301200 0.812777
H 1.489650 28.051100 2.910200
H 1.438630 28.053000 2.910150
H 1.847300 27.863200 3.132350
H 3.206210 28.073000 2.679780
H 3.154510 28.069300 2.674250
H 2.835810 27.882700 2.982280
H 1.955250 29.489400 33.250300
H 1.999670 29.439500 33.255700
H 33.175500 27.763700 3.426390
H 33.217800 27.756900 3.433330
H 33.168100 27.769200 3.441000
H 32.984300 28.889700 1.801630
H 32.905900 28.891700 1.796910
H 32.930600 28.871900 1.789400
H 32.783900 28.318000 2.651700
H 32.835500 28.319900 2.653130
H 32.775800 28.322500 2.651860
H 2.159230 2.187840 16.859800
H 2.087620 2.291720 16.859300
H 1.385960 3.052720 16.839200
H 1.443070 2.935410 16.849100
H 3.940580 2.095390 17.586000
H 4.021110 2.023140 17.571500
H 3.102860 1.853930 17.124200
H 3.022670 1.941310 17.132700
H 1.105710 4.020410 17.077700
H 2.523140 3.057900 17.331900
H 2.032190 3.922240 17.441100
H 2.077230 3.813970 17.450700
H 1.146280 3.896320 17.094900
H 2.583700 2.959730 17.333200
H 3.514640 2.877380 17.689000
H 3.449630 2.959740 17.695200
H 3.885150 3.725920 18.167800
H 2.958670 3.824080 17.804400
H 3.939110 3.649260 18.162400
H 3.008170 3.731620 17.806500
H 4.595390 2.712670 18.097900
H 4.667950 2.650140 18.081700
H 4.811640 3.627760 18.531200
H 4.870050 3.566910 18.518200
H 1.321960 4.935490 17.510900
H 2.467720 4.688420 17.913600
H 2.501700 4.585850 17.924100
H 1.348380 4.813100 17.531400
H 1.995220 5.440090 18.041600
H 1.976760 5.552770 18.022800
H 3.394200 4.590260 18.277000
H 3.432640 4.503500 18.279900
H 2.894670 5.706850 18.476200
H 2.913480 5.609300 18.488800
H 3.857110 5.275390 18.753300
H 3.829730 5.356440 18.749600
H 4.531390 4.595440 18.769700
H 4.573270 4.527820 18.764000
H 7.405800 1.677770 21.827800
H 8.353800 0.997995 22.246400
H 9.329620 1.227410 21.517600
H 8.372800 1.618980 21.462700
H 6.687720 1.388020 22.515100
H 6.410980 0.827372 23.340200
H 7.511270 0.882514 22.772500
H 10.019900 33.136000 21.977700
H 7.492270 32.789600 23.556100
H 6.649730 32.674100 24.082300
H 8.315810 32.284100 23.813600
H 9.158350 32.399500 23.287400
H 8.334810 32.905000 23.030000
H 9.177350 33.020500 22.503800
H 9.981900 31.894000 23.544900
H 10.258600 32.454700 22.719700
H 7.340000 32.054600 24.542400
H 9.263820 31.604300 24.232100
H 8.296820 31.663100 24.597200
H 1.392590 15.171800 8.874290
H 1.435410 15.160600 8.867820
H 2.296680 14.731900 9.121200
H 2.338650 14.730900 9.135040
H 1.397310 15.084700 10.872400
H 1.405550 15.093500 10.866500
H 1.846990 14.908300 9.996820
H 1.872100 14.912200 10.000800
H 2.300770 14.656500 10.851600
H 2.312790 14.672900 10.866000
H 2.991870 14.398400 9.866220
H 2.959780 14.386600 9.837340
H 3.220030 14.252200 10.865400
H 3.204230 14.228300 10.830800
H 0.964860 15.332900 10.001300
H 0.943537 15.336600 10.017600
H 1.846240 14.854200 11.731700
H 1.851080 14.832900 11.727300
H 1.402030 14.997700 12.870600
H 1.375690 15.026500 12.865200
H 2.286930 14.614800 12.596900
H 2.304860 14.581100 12.582100
H 2.962010 14.331400 11.864900
H 2.964510 14.299500 11.835500
H 0.947626 15.261100 11.748100
H 0.938998 15.274900 11.732300
H 33.017800 15.588400 9.162790
H 33.052200 15.572300 9.136150
H 32.118400 15.941200 10.914000
H 32.377100 15.855700 9.868130
H 33.021900 15.513000 10.893200
H 32.358200 15.870000 9.909390
H 32.119100 15.934900 10.867600
H 33.026300 15.514200 10.867100
H 33.026000 15.437600 12.623700
H 32.347300 15.788700 11.866800
H 32.362900 15.782900 11.907500
H 33.000500 15.456200 12.598000
H 19.838600 18.402400 20.128900
H 19.796700 18.414900 20.158600
H 20.403200 19.491100 20.308000
H 20.372700 19.501600 20.311000
H 20.436200 18.906700 19.509700
H 20.480900 18.911700 19.496500
H 21.041700 19.717300 19.290200
H 21.081600 19.731500 19.299000
H 20.880100 20.363000 20.335600
H 20.902600 20.356200 20.354300
H 21.450900 20.629500 19.559000
H 21.479700 20.642100 19.589300
H 21.554300 21.398900 20.243900
H 21.568600 21.399400 20.289500
H 19.082500 18.741300 21.949200
H 19.294600 18.373700 21.063100
H 19.326700 18.340000 21.026600
H 19.064300 18.794200 21.980700
H 19.826100 19.205200 21.073000
H 19.738500 19.830100 21.889000
H 19.801900 19.235100 21.087700
H 20.309300 20.096600 21.112300
H 20.325500 20.070400 21.119400
H 19.748400 19.784500 21.884400
H 20.247800 20.649700 21.930800
H 20.245900 20.691500 21.913600
H 20.824900 20.935500 21.165700
H 20.816700 20.958000 21.136900
H 21.324000 21.819400 21.161500
H 21.324300 21.800700 21.212100
H 20.812400 21.738300 22.109800
H 20.821900 21.778200 22.066000
H 19.171300 19.498700 22.649500
H 19.167700 19.563600 22.665700
H 19.576900 20.475800 22.934400
H 19.569400 20.409300 22.939700
H 20.170100 21.229000 22.742200
H 20.182400 21.286400 22.714900
H 27.418300 16.782700 18.534200
H 27.420400 16.773700 18.577500
H 27.120000 17.740300 18.794800
H 27.119500 17.753500 18.734700
H 27.225900 18.762200 18.667000
H 27.238500 18.773500 18.603300
H 27.743500 19.569400 18.175000
H 27.709600 19.565600 18.228200
H 29.613900 16.305100 16.816200
H 29.562500 16.327600 16.785100
H 28.046500 16.121300 18.073200
H 28.858400 15.946500 17.426500
H 28.830600 15.958000 17.417200
H 28.054700 16.121300 18.055300
H 29.394000 18.049700 16.862600
H 29.458300 18.029100 16.876000
H 30.046200 17.131000 16.346300
H 30.118800 17.101000 16.387900
H 30.152000 18.152900 16.218500
H 30.237800 18.121000 16.256500
H 29.302600 19.753200 16.935900
H 29.225500 19.771900 16.940000
H 29.939100 19.091800 16.457000
H 29.851700 19.119500 16.435800
H 28.678700 17.937200 17.495600
H 28.636000 17.946600 17.506600
H 29.146300 17.121200 17.155900
H 28.366700 17.029300 17.775400
H 28.172800 18.756100 17.867400
H 29.099300 17.137100 17.145900
H 28.341300 17.034000 17.789900
H 28.211100 18.753300 17.835300
H 27.899100 17.845400 18.115200
H 27.878000 17.843500 18.150700
H 28.990600 18.845200 17.215700
H 28.930800 18.859200 17.223300
H 28.441500 19.935200 17.596100
H 28.499000 19.928000 17.564700
H 5.001440 18.001400 23.878800
H 4.989070 18.621900 23.050200
H 5.598480 20.140500 23.618100
H 5.347100 19.188400 23.792400
H 5.168570 19.546000 22.619300
H 5.491840 20.526100 22.701600
H 5.872260 21.299500 23.275100
H 5.202360 17.850700 24.883200
H 5.538000 18.210300 25.794200
H 5.453750 18.802800 24.708900
H 5.705130 19.754900 24.534700
H 5.811780 19.369300 25.451200
H 6.063160 20.321400 25.276900
H 5.956510 20.707000 24.360400
H 5.918420 18.983800 26.367700
H 6.207900 21.659100 24.186100
H 6.408820 21.508500 25.190500
H 6.421190 20.888000 26.019200
H 6.241690 19.963900 26.450000
H 31.412800 21.063400 29.539900
H 31.361100 21.049200 29.548800
H 31.365200 21.061800 29.531400
H 31.372400 21.063900 29.527800
H 29.199700 19.761200 30.804100
H 29.173400 19.780100 30.815200
H 29.180700 19.790700 30.783100
H 29.225200 19.750000 30.760500
H 28.638300 20.252900 31.449400
H 29.971700 19.762900 30.115700
H 29.988000 19.742100 30.133200
H 30.026400 19.737200 30.104900
H 29.967300 19.747600 30.151500
H 30.780600 20.218200 29.667400
H 30.827100 20.218000 29.658100
H 30.773900 20.229000 29.656200
H 30.768100 20.212100 29.688000
H 29.597100 20.698200 30.837400
H 29.601900 20.675600 30.851300
H 29.625000 20.664500 30.822500
H 29.583100 20.691400 30.856900
H 29.223800 21.345100 31.435600
H 29.217000 21.386700 31.455200
H 30.425900 20.898500 30.271200
H 30.392400 20.904100 30.282900
H 30.393700 20.917400 30.274000
H 30.380500 20.907400 30.293200
H 30.825600 21.813100 30.333200
H 30.790200 21.818700 30.334900
H 30.794600 21.818400 30.330100
H 30.810200 21.825000 30.328300
H 30.004200 21.589900 30.898500
H 29.992900 21.602700 30.898500
H 30.013600 21.605800 30.891700
H 30.024700 21.579100 30.884400
H 31.626500 22.047100 29.782000
H 31.585100 22.046900 29.761700
H 31.587500 22.034600 29.771300
H 31.606800 22.044100 29.764800
H 28.627000 20.270300 31.500300
H 28.599100 20.301000 31.501200
H 28.612900 20.304800 31.479600
H 29.195500 21.386700 31.462200
H 29.213700 21.361500 31.466800
H 28.643100 22.118100 32.265500
H 28.654800 22.147700 32.255600
H 28.420400 21.167500 32.018600
H 29.605300 22.298000 31.503800
H 29.615900 22.275800 31.514000
H 29.633400 22.294200 31.509500
H 29.623500 22.259700 31.497500
H 28.624600 22.156200 32.248300
H 28.636600 22.094800 32.228800
H 28.423300 21.133000 32.035200
H 28.422900 21.111100 31.986800
H 28.398200 21.170700 32.025800
H 30.402600 22.514000 30.940200
H 30.406400 22.504300 30.945600
H 30.424400 22.493700 30.946300
H 30.846500 23.420900 31.000300
H 30.824100 23.408200 31.008200
H 30.808600 23.418600 30.992800
H 30.812300 23.425200 30.981800
H 31.411100 22.905400 30.319400
H 31.414300 22.906800 30.303800
H 31.381300 22.909600 30.296700
H 31.386700 22.904300 30.295800
H 30.430000 22.513400 30.946000
H 29.222300 22.940200 32.110600
H 29.227700 22.961700 32.129500
H 29.217700 22.993300 32.109100
H 29.253300 22.982700 32.127200
H 30.018400 23.457800 31.645600
H 30.020300 23.437700 31.663700
H 30.023000 23.421000 31.663900
H 30.055500 23.448700 31.667700
H 10.651900 20.576400 15.908300
H 10.704200 20.600700 15.887200
H 10.590400 21.315400 16.901400
H 11.506500 20.957100 16.721100
H 9.829510 21.067000 16.301900
H 9.888430 21.101000 16.282200
H 10.650800 21.330900 16.887200
H 11.561600 20.959200 16.707300
H 9.591530 22.304200 17.852000
H 9.414930 21.690700 17.016800
H 9.519210 22.280400 17.861300
H 9.481150 21.724500 17.001300
H 11.413100 21.560800 17.492200
H 11.351400 21.563800 17.500800
H 10.502300 21.932500 17.672100
H 10.435300 21.922100 17.681100
H 11.264700 22.162400 18.277100
H 11.196200 22.170500 18.280500
H 10.190000 22.684700 18.606300
H 10.114400 22.678000 18.609300
H 11.041100 22.777100 19.060200
H 11.116200 22.764100 19.062000
H 11.661700 20.350400 15.941400
H 12.588300 20.449600 16.392400
H 12.636200 20.437000 16.378100
H 11.710000 20.357600 15.922400
H 12.267400 21.205500 17.320600
H 12.323900 21.189200 17.312300
H 12.112300 21.812200 18.100300
H 12.175400 21.790800 18.097200
H 12.937800 22.020700 18.702200
H 12.873200 22.060600 18.699700
H 13.345100 21.397100 17.983000
H 13.234700 20.817500 17.132400
H 13.287800 21.436900 17.984900
H 13.183500 20.847200 17.140300
H 12.050900 22.551100 19.093300
H 12.122000 22.521000 19.097100
H 1.794700 25.632400 9.627590
H 1.774410 25.632900 9.635730
H 2.729760 25.688300 9.240640
H 2.754870 25.694500 9.245390
H 3.691310 26.071000 9.269910
H 3.714100 26.081500 9.289320
H 4.401420 26.678300 9.715690
H 4.415380 26.689800 9.747610
H 1.081260 25.919600 10.349300
H 1.090870 25.912000 10.333500
H 0.831978 26.458300 11.174000
H 0.836016 26.471600 11.190200
H 2.273040 26.269900 10.231700
H 2.263660 26.271300 10.230000
H 1.791680 26.682800 11.004900
H 1.794460 26.690600 11.007300
H 3.242160 27.548000 11.418700
H 3.232750 26.494400 10.062500