9000
Atoms. Timestep: 0
O 0.779238 1.486410 0.738304
O 1.464470 2.190620 33.202000
O 0.801198 4.053350 32.894600
O 31.842300 2.435360 1.536010
O 32.315700 1.443000 1.327980
O 31.796400 2.270000 2.449880
O 32.198300 4.020420 0.847695
O 32.140500 3.061670 0.852795
O 30.965100 0.846895 2.843300
O 31.418000 1.720840 3.142910
O 30.943700 2.537450 4.249620
O 30.954700 2.572420 3.294990
O 29.277100 0.833346 5.233340
O 28.614800 1.404720 4.846960
O 29.155700 2.051340 5.522390
O 29.504700 1.717360 4.628130
O 30.127600 0.888800 5.745050
O 30.864000 2.394810 5.211520
O 31.035600 1.081730 5.963840
O 31.557700 1.896700 5.937070
O 31.355100 3.174500 5.445190
O 31.001400 2.256660 7.119210
O 31.713700 1.517710 6.885120
O 31.037200 2.706600 6.267820
O 32.473800 1.919950 33.091100
O 33.203900 2.760790 32.979300
O 32.767000 3.411740 32.369200
O 32.509000 4.513500 32.675900
O 31.846500 33.120500 1.395340
O 31.588700 32.970100 2.281750
O 3.734910 1.823120 1.653600
O 5.617190 0.998339 0.871713
O 4.572340 2.215680 1.975730
O 5.358370 1.675600 1.505350
O 4.484640 1.412610 1.259600
O 4.701210 3.108230 2.276470
O 3.957750 2.280960 2.876590
O 4.293000 2.386730 3.783900
O 4.266760 3.220440 3.115760
O 4.212560 3.140350 4.345600
O 5.758480 1.974160 5.564780
O 4.839940 2.316950 5.537630
O 4.841470 2.469460 4.591630
O 5.703950 2.372330 7.453630
O 5.781940 2.387360 6.513760
O 5.863040 3.319850 7.178760
O 6.001340 3.119320 8.080710
O 5.234690 1.082280 31.454600
O 4.513260 1.468050 31.977300
O 4.933420 1.517760 32.848500
O 4.371980 2.250250 32.753400
O 5.175520 2.639760 33.015600
O 5.819090 2.969920 32.350400
O 4.243600 33.086200 32.488900
O 4.868970 32.804400 31.800200
O 4.882090 32.870100 33.163500
O 7.020470 4.323960 31.016900
O 6.323690 5.054010 30.943200
O 6.429360 3.473460 31.803500
O 7.332630 3.532880 31.510400
O 3.708010 0.957114 2.150830
O 2.565530 1.095960 3.374920
O 3.184510 32.087900 1.342420
O 3.778480 32.547600 2.262800
O 3.750230 32.882400 1.356520
O 2.831400 33.259500 2.529890
O 5.540470 31.950200 0.897982
O 2.840090 32.789900 3.730280
O 3.574070 32.516600 4.292450
O 3.303270 30.398300 5.311730
O 3.785630 29.697300 5.795730
O 2.768150 30.728300 6.054290
O 4.480240 30.328500 5.618730
O 3.034580 32.154300 4.983690
O 2.624570 31.592200 5.678080
O 5.814120 30.904200 32.336500
O 3.121880 32.592800 33.064900
O 3.880450 31.981400 32.922500
O 4.242210 31.739800 32.097800
O 5.010300 31.650500 32.622600
O 7.455140 31.418300 2.092440
O 7.105750 31.457800 1.179700
O 8.286900 31.490200 1.666570
O 9.191420 31.652300 2.056210
O 9.452750 32.108500 3.220110
O 8.695670 32.597000 3.625520
O 9.944160 31.536000 2.620400
O 6.247940 31.427900 33.000900
O 7.321610 30.819500 33.018100
O 6.512890 30.389200 32.662200
O 5.644480 0.761342 1.884980
O 5.459810 32.156900 1.980870
O 4.802880 32.831100 1.980380
O 6.030840 32.152300 2.735620
O 5.185870 32.462300 30.480300
O 6.091440 32.337100 30.116600
O 6.876440 0.905718 3.004330
O 11.469900 0.751896 4.343990
O 6.162770 32.726800 1.262980
O 11.561800 32.376600 1.883790
O 8.525510 30.679900 2.714130
O 8.766030 30.690300 3.618370
O 7.167630 32.507100 2.878480
O 6.249540 32.843700 3.325000
O 7.708530 31.868200 3.308240
O 8.476680 31.511500 3.983220
O 8.524110 31.643100 2.922840
O 9.350830 31.782300 4.219550
O 9.704090 32.666900 4.253830
O 11.110800 32.986100 2.686500
O 10.645000 32.801400 4.339510
O 11.454500 32.854700 3.551790
O 7.021830 32.580200 31.130100
O 6.956860 32.654800 30.151400
O 6.767720 32.508300 33.131900
O 6.873440 32.933000 32.229900
O 6.192070 32.777500 31.537900
O 12.281500 0.784812 2.518360
O 11.620600 1.307700 2.955140
O 12.252100 32.968100 1.606070
N 6.085160 4.075980 1.446180
N 5.963910 5.967360 0.954970
N 6.100900 5.211800 1.984420
N 5.920280 4.987470 1.058500
N 6.019770 5.664010 32.565600
N 5.007700 9.358860 8.445340
N 4.708430 9.459640 9.306360
N 5.766510 9.969190 8.541600
N 5.973410 10.882700 8.484080
N 5.427580 8.470170 10.208700
N 4.646340 9.078150 10.194100
N 5.983580 10.395700 9.796690
N 5.960080 25.755700 9.937270
N 5.818950 26.060600 11.297400
N 6.052150 25.340900 11.887200
N 6.198050 4.075060 2.439160
N 6.881770 4.624580 1.843720
N 7.489420 4.865900 0.894949
N 9.089670 5.250290 2.305630
N 8.094670 4.402880 1.510790
N 8.293720 5.276860 1.744430
N 10.521500 4.523340 1.718870
N 11.119600 5.152730 2.082840
N 10.995100 6.012960 1.596540
N 7.062300 4.124860 2.878830
N 11.256300 4.167960 3.533050
N 10.811600 4.287680 2.551780
N 10.401800 3.825350 3.267600
N 6.846970 4.824360 3.483640
N 7.801280 4.598230 3.755970
N 10.817800 4.746510 4.253740
N 11.109600 2.548730 6.048520
N 7.822300 4.848540 5.099170
N 7.065890 4.872550 4.443280
N 8.771090 5.444550 5.558350
N 8.112350 4.914200 5.979350
N 9.509340 6.126360 6.144110
N 11.109000 5.785040 4.699010
N 10.590600 2.029000 6.632670
N 11.117200 2.464330 7.246050
N 8.641490 5.937060 6.409260
N 11.185900 1.632210 9.074570
N 10.370600 2.195340 9.112520
N 10.907800 2.296020 8.255610
N 10.130000 3.092290 9.770490
N 10.113300 6.063460 8.901430
N 10.395600 5.896410 7.977350
N 10.657000 2.408210 11.530300
N 11.438000 1.089870 10.348900
N 9.976140 2.055120 10.008100
N 10.554000 1.184470 9.978040
N 9.673180 3.966260 10.419800
N 9.344260 4.145060 11.329100
N 11.415500 2.694110 11.007700
N 10.409000 4.204300 9.829640
N 10.699700 4.114400 10.749200
N 11.069000 3.243270 10.080700
N 10.449000 2.860250 10.727200
N 11.171200 5.385630 10.348000
N 11.175700 2.372390 12.938300
N 10.773000 4.433380 12.012500
N 9.824690 4.754470 11.914400
N 6.819210 5.325620 32.834000
N 7.273360 7.065810 2.085770
N 7.982790 7.625940 1.848140
N 11.354900 7.886730 2.144780
N 10.711600 7.014270 0.992956
N 11.138300 6.872890 1.868490
N 10.613200 7.790240 1.566370
N 11.478200 9.882720 1.611020
N 11.250800 10.458600 2.449080
N 7.290420 6.353300 2.706790
N 7.956010 6.804180 3.234780
N 8.342320 6.465340 4.047310
N 10.515700 6.261040 4.074630
N 11.528100 9.360700 3.318670
N 10.711300 8.318230 2.634060
N 10.407600 9.547430 3.955060
N 10.308000 8.720430 3.483190
N 10.673800 9.669470 3.066250
N 11.254000 10.310500 3.760240
N 9.182320 6.840630 4.395700
N 8.889200 6.941930 5.781640
N 9.160400 6.212620 5.077160
N 10.238900 6.691050 4.862970
N 9.867300 7.894230 5.040550
N 10.114900 7.025960 5.790470
N 10.948600 7.814800 6.015910
N 9.147790 8.243550 5.527120
N 10.991200 8.510920 5.359920
N 10.187800 8.666980 4.538350
N 10.392300 9.281850 5.250820
N 11.432000 9.882480 4.569270
N 9.192320 6.851840 6.736740
N 9.293610 7.564540 7.514630
N 10.347200 7.562340 6.774060
N 9.786560 6.744890 7.753150
N 8.915140 8.549580 7.861230
N 9.644090 8.084540 6.423710
N 9.818570 8.340770 7.391820
N 9.169640 7.935570 8.539580
N 10.579500 7.920290 9.720580
N 11.401000 7.312040 9.528380
N 11.125400 6.298120 8.728290
N 10.651400 6.352180 9.597150
N 10.536400 9.734160 9.443680
N 10.092000 8.041440 8.883580
N 10.774900 8.906760 9.023730
N 6.595290 10.369300 9.056000
N 7.573200 10.278000 9.744430
N 7.599630 11.033300 9.146950
N 10.777000 9.685870 10.592400
N 11.021000 8.874540 9.913660
N 11.532500 8.049830 10.256400
N 6.841100 10.895200 9.909050
N 9.305650 10.873000 10.505200
N 8.662190 10.507500 9.789200
N 8.028600 11.269400 9.957490
N 10.007700 10.245700 10.387600
N 11.322100 10.072900 9.925090
N 10.762500 20.873400 4.184690
N 10.390600 21.011600 3.304070
N 10.372800 21.974700 2.995590
N 11.578600 21.246300 3.417310
N 11.037000 22.005300 3.663550
N 10.040500 21.344200 5.244270
N 11.000400 21.457000 4.938970
N 11.291300 21.175000 6.156160
N 10.308700 21.464300 6.140480
N 9.931360 21.795700 6.952030
N 10.767400 22.233100 7.011350
N 11.338100 22.964900 7.274340
N 11.017700 25.909700 6.831510
N 11.198100 25.046900 7.474460
N 11.274900 26.015800 7.726170
N 10.097900 27.636300 7.670960
N 7.640310 25.380600 9.495620
N 6.792630 25.804000 9.393280
N 11.002800 25.369000 8.706370
N 10.862200 24.423800 8.748960
N 11.014400 24.270700 9.677350
N 8.119010 26.200600 9.614350
N 10.986900 26.336500 8.766940
N 10.834100 27.168600 9.174030
N 10.759100 27.252800 8.189790
N 6.503310 25.674500 10.697100
N 9.092760 25.752700 10.643700
N 9.849020 25.100200 10.602000
N 10.361200 24.342800 10.389800
N 7.745820 26.830400 11.337300
N 7.311050 26.276100 10.162900
N 6.944430 27.570300 10.048300
N 6.700490 26.850400 10.595800
N 8.332600 26.329100 10.779700
N 9.435400 27.020400 10.905700
N 9.122150 27.364500 10.066800
N 10.109200 27.230700 10.142000
N 7.941240 25.958900 11.658100
N 6.688520 25.344500 12.566100
N 7.172960 26.064000 12.167500
N 11.090100 28.001200 7.736180
N 7.062260 28.526500 9.700270
N 6.335180 28.021000 9.296720
N 11.489300 28.901000 7.977950
N 10.487500 28.025900 9.737730
N 11.355900 27.915300 9.349010
N 10.996100 28.533000 11.527600
N 10.505700 29.441200 11.177300
N 11.512700 29.664400 11.143200
N 10.586800 28.739700 12.886000
N 10.194400 29.573400 12.685300
N 10.219400 28.749100 11.972800
N 11.198400 29.554700 13.173600
N 10.875200 29.676900 12.048200
N 11.290900 30.499400 12.850400
N 10.189100 30.661900 14.270100
N 10.965100 30.463800 13.742700
N 11.483500 31.007500 14.463100
N 10.806200 30.235500 14.811900
N 10.676800 31.195100 15.037800
N 11.723900 5.358320 4.190720
N 14.751800 5.036640 3.653440
N 14.004700 5.373340 3.125320
N 16.692800 5.466540 4.304230
N 12.661600 0.853770 5.631260
N 12.370800 2.016410 5.733340
N 13.233800 0.869685 4.846450
N 14.170000 1.525130 5.155550
N 14.522500 1.817510 5.996260
N 15.449000 1.792530 5.643820
N 15.967900 1.399490 4.912180
N 13.088300 2.668310 5.687170
N 11.972300 2.859680 5.883230
N 13.361600 3.615340 5.979070
N 13.992000 2.755880 5.469510
N 14.190600 3.723160 5.496710
N 11.697100 4.442620 4.393660
N 13.445000 5.209060 5.746030
N 14.314300 5.164940 5.299400
N 14.366700 5.592700 4.388700
N 12.688700 1.938090 6.851490
N 11.851300 2.043200 7.674910
N 12.919100 1.051580 6.777820
N 12.058600 0.774707 6.341110
N 16.565800 1.250690 6.623890
N 12.152200 2.713200 7.089620
N 11.956600 1.255830 8.635140
N 11.727900 2.392210 8.736840
N 11.896400 5.673850 8.780500
N 12.565200 5.017260 9.035460
N 12.850200 6.115320 8.943490
N 13.395900 5.405550 9.461160
N 12.045500 3.816450 9.849340
N 12.054000 3.344960 10.684200
N 11.803200 5.807880 9.780700
N 11.952400 5.805630 10.777400
N 11.826700 4.952460 11.227900
N 11.602800 4.366850 10.432600
N 12.951200 6.137930 9.897790
N 12.414300 1.287620 12.195200
N 11.944600 1.820150 12.849000
N 11.727000 4.505880 12.079600
N 14.559300 6.903430 2.459090
N 12.312800 9.492960 1.893330
N 12.216200 10.499000 2.444400
N 13.301800 10.878500 1.499740
N 12.423100 11.223600 1.525770
N 12.049400 9.907760 0.843108
N 13.983800 6.160870 2.629140
N 15.224300 6.986410 3.221370
N 16.222000 7.008210 3.109900
N 15.490300 6.513200 4.072870
N 16.120500 7.240030 4.030060
N 16.821200 6.366730 3.759350
N 12.341600 9.451080 2.845550
N 12.258100 9.197580 4.033730
N 13.457600 8.616940 3.593250
N 13.543000 9.506910 2.874280
N 14.225700 8.888870 3.078520
N 11.601800 11.100100 3.151960
N 13.017800 10.300200 2.916910
N 12.148300 10.380300 3.555940
N 12.996600 9.781940 3.852860
N 11.940200 7.804630 6.074220
N 16.234700 6.221580 4.665600
N 12.841600 8.535590 4.365560
N 13.359000 8.180450 5.882120
N 12.487500 8.630730 5.799750
N 11.913600 9.145900 5.069830
N 13.187800 9.106060 5.435690
N 12.273700 9.713640 5.738950
N 12.742900 9.790380 4.946810
N 12.506600 7.844840 6.912800
N 12.977400 7.328920 6.183660
N 12.499400 6.749930 8.309720
N 11.946300 6.608320 9.103430
N 11.747700 8.511900 9.478260
N 12.454100 10.775200 33.177700
N 13.633200 10.531600 33.185200
N 14.411600 20.455200 3.232400
N 14.218000 20.593700 4.207950
N 12.711400 20.873500 3.811540
N 12.226200 20.749200 2.990190
N 12.772600 20.377700 4.594570
N 13.610700 19.917400 4.520740
N 13.194200 21.980400 6.265210
N 11.815100 20.667800 6.816770
N 11.698000 21.562200 7.094270
N 12.457500 21.408200 6.523650
N 14.217700 22.307300 6.619890
N 15.076400 25.306700 3.854490
N 15.944700 25.088600 4.246720
N 16.423700 26.450400 4.274520
N 15.701800 27.047900 4.255600
N 12.078800 23.961700 5.897870
N 14.496300 25.570400 5.946430
N 15.116500 25.698300 5.266360
N 16.453200 25.805100 4.955860
N 16.488000 24.579700 4.889080
N 15.383400 26.352700 5.991510
N 15.754700 26.728200 5.170900
N 15.241300 26.108500 4.441840
N 12.824700 22.470500 7.016930
N 11.752700 23.257300 6.464200
N 14.579400 23.914900 7.328730
N 14.609700 22.967400 7.208570
N 13.695900 22.502100 7.460930
N 12.061700 24.795400 7.698750
N 12.141900 24.571200 6.590660
N 12.828400 25.222100 7.284610
N 12.969600 24.347600 6.999910
N 12.701200 25.553500 6.433190
N 11.928800 25.629100 6.939680
N 14.290900 24.669200 6.783290
N 13.665100 25.306600 6.422970
N 15.482200 25.756500 7.640740
N 15.106100 26.233800 6.894280
N 12.783300 25.552200 8.831720
N 12.105400 25.575500 8.181610
N 11.707700 27.438200 10.475300
N 13.431200 26.877600 11.336200
N 14.009500 27.695200 10.978900
N 16.935800 27.050400 11.326800
N 15.968000 26.337200 11.209500
N 15.315600 26.982200 11.467100
N 16.809400 23.795500 13.183000
N 16.998400 23.688600 12.103800
N 16.183000 25.783000 11.990400
N 14.986500 27.667500 13.171400
N 14.379200 26.893800 11.631000
N 16.235600 26.691500 12.275300
N 15.401700 26.702300 13.230100
N 15.503100 27.316700 12.381000
N 16.458100 23.016600 13.646600
N 14.978400 27.149800 13.973000
N 16.164900 27.147300 13.553300
N 16.374400 30.036100 5.948040
N 13.776200 33.255200 5.551160
N 15.704500 33.159300 5.487750
N 16.553300 33.155200 5.875080
N 16.310600 30.803000 6.569090
N 16.905600 31.411800 7.038230
N 16.510600 32.837400 6.891940
N 11.917900 29.114400 8.808260
N 12.190600 28.651000 9.597900
N 12.465300 32.063300 9.373230
N 12.169500 32.955600 9.092650
N 12.534100 28.278400 10.421200
N 11.708900 28.067400 11.168200
N 13.387600 28.287200 10.111300
N 14.301700 28.215700 10.255200
N 14.282800 28.592800 11.231200
N 13.874500 29.451800 11.505800
N 12.639200 31.115400 11.002300
N 13.501100 31.417200 11.170200
N 12.119400 33.221400 10.873000
N 13.018700 31.512700 9.879830
N 13.051600 32.130200 10.578400
N 11.682800 28.946700 12.349100
N 11.778700 28.779900 13.301500
N 12.454600 28.477000 12.134500
N 12.551100 29.338800 11.779300
N 16.598500 27.894500 13.159400
N 12.517800 29.860300 12.603800
N 11.842700 30.192500 11.804100
N 12.751300 30.646500 11.834000
N 13.425800 29.761700 12.341900
N 12.598200 33.026100 11.722600
N 11.969700 29.531200 15.015000
N 12.761300 30.080500 14.972300
N 12.569000 30.993900 15.121600
N 12.316300 31.469500 14.336100
N 11.781100 30.372800 15.424800
N 17.734000 6.141590 4.018970
N 18.046000 1.453630 4.926570
N 18.576600 1.198840 5.754490
N 17.777600 2.499990 5.854060
N 17.536500 1.563420 5.773080
N 18.686600 2.083260 5.456620
N 19.602100 2.225230 5.151340
N 19.179600 3.025150 5.481170
N 18.914600 3.846250 6.132340
N 18.854100 4.087960 5.234480
N 19.288600 6.046740 5.210090
N 19.382300 4.875720 5.084170
N 19.783600 5.445720 5.741840
N 19.714900 3.316090 6.252610
N 18.536500 6.185940 4.498950
N 19.395500 6.624360 4.489320
N 17.405800 25.915400 5.141000
N 17.110500 24.843900 5.617490
N 17.942800 26.421400 5.791580
N 17.176000 25.536200 6.301230
N 17.383500 26.473900 6.600700
N 17.559900 25.499400 11.537600
N 17.073000 26.131300 11.120200
N 18.344500 24.056900 12.246600
N 17.685900 23.035100 12.344900
N 17.230300 22.706100 13.141900
N 18.544800 24.941100 11.865400
N 18.717000 25.077300 12.834000
N 17.537600 24.368100 12.958200
N 17.621000 24.598200 11.842600
N 17.021500 27.459500 12.343600
N 17.968500 23.950000 13.677700
N 18.774200 24.461100 13.527100
N 17.522600 31.413000 6.284750
N 17.066000 32.272900 6.362300
N 17.362500 27.938600 11.431200
N 17.036300 28.359500 12.240700
C 1.636510 5.286190 0.860726
C 1.391170 5.941810 1.472550
C 1.686810 5.485170 2.227460
C 2.407570 4.752130 0.928632
C 2.450720 4.886060 1.895060
C 3.337880 5.384570 2.172950
C 3.632300 4.523670 2.316590
C 2.146590 1.933920 3.625800
C 2.123170 2.726620 4.090560
C 2.099590 3.879390 4.264210
C 3.328680 4.002590 3.087900
C 2.073790 4.745530 3.964420
C 1.691760 5.111840 3.118410
C 2.699150 4.723310 2.764210
C 2.245540 2.642080 5.052720
C 2.037800 4.036730 5.836110
C 2.617020 3.533940 5.138860
C 1.863840 4.443840 5.015590
C 1.629820 7.747520 1.232790
C 2.507410 7.331320 1.758930
C 1.829410 6.725000 2.103000
C 3.028880 6.299950 2.274030
C 5.871750 7.536410 2.411380
C 2.142070 8.386040 1.696540
C 1.030500 8.355150 1.607200
C 1.360090 8.339060 2.499850
C 1.468000 9.195490 2.087840
C 3.101500 9.281320 2.290820
C 4.381490 8.446790 2.451460
C 5.283860 8.243540 2.449510
C 4.785190 9.414220 2.178980
C 1.247080 6.788380 2.858970
C 2.110320 7.625930 2.572440
C 2.919430 7.177080 2.747020
C 4.355810 7.577190 2.877750
C 2.426350 8.672030 2.590590
C 1.137410 8.399780 3.973740
C 0.926918 9.624310 2.945440
C 0.768940 9.351960 3.845960
C 3.975360 9.517240 2.559420
C 4.926830 8.105340 3.439120
C 5.038860 9.134560 3.059280
C 5.600830 9.608930 3.647900
C 4.890640 7.766380 5.131240
C 6.043320 8.437150 4.972060
C 5.181040 8.372910 4.352990
C 5.047560 8.881280 5.521870
C 5.551270 8.067310 5.733590
C 5.492850 9.420970 4.536270
C 5.514450 10.811900 4.620090
C 5.259910 10.081400 5.192830
C 5.049130 8.579120 6.441250
C 5.867510 9.008110 6.578820
C 5.928200 8.112200 7.835300
C 3.796850 7.659290 31.435900
C 3.794180 8.592720 31.119400
C 5.471510 8.556190 31.276000
C 5.581330 7.664050 32.831600
C 4.763340 7.826970 31.504000
C 3.447470 8.897470 31.950100
C 4.132880 8.201410 32.134200
C 4.615460 8.873050 31.567900
C 5.773180 8.241630 32.151700
C 6.281340 6.891550 1.631170
C 6.556150 7.825990 1.806390
C 6.920390 6.677080 3.656480
C 7.492730 7.092700 4.316830
C 6.899280 7.860850 4.077030
C 6.405570 6.766150 4.432470
C 6.396210 7.572270 4.935040
C 7.109640 8.299590 4.947740
C 6.528090 9.141390 4.517510
C 6.440420 10.968700 4.817540
C 6.381030 10.040500 4.713960
C 6.732120 7.629940 7.880330
C 6.307890 8.241340 6.994430
C 7.343020 8.253560 9.363970
C 6.581660 8.213590 8.633240
C 6.433720 8.377000 9.588780
C 7.589070 9.000160 9.856530
C 6.245420 7.101590 33.242200
C 33.252200 6.432770 2.157980
C 33.054300 9.236910 2.134150
C 32.759700 6.366170 4.038210
C 32.768100 6.986550 2.771020
C 32.346200 7.337240 3.533400
C 31.594200 6.776610 3.299610
C 31.854200 6.501890 4.186530
C 32.773600 8.363510 3.733960
C 32.580300 9.131890 3.214240
S 0.921371 1.406800 3.377550
S 1.632370 1.237330 29.361000
S 0.769453 1.342170 30.576900
S 1.534850 1.733960 30.150900
S 1.615790 24.903900 1.194010
S 1.891740 24.994700 2.088920
S 2.150550 25.764100 1.396270
S 2.801070 25.219000 1.975980
S 3.114460 25.896000 1.108360
S 3.637500 26.707900 1.322750
S 3.378170 27.576500 1.636190
S 6.101870 27.460300 5.988040
S 5.072390 27.800000 4.561370
S 6.035070 26.500200 5.360420
S 6.027640 26.589500 6.351060
S 2.219430 27.756700 29.245500
S 2.982290 27.225900 29.322000
S 2.534780 26.725900 30.043800
S 1.633390 27.016800 30.159400
S 2.116170 27.585100 30.836600
S 1.904320 26.415700 31.285200
S 1.804190 24.745900 32.738900
S 2.371850 25.527500 32.746000
S 2.647690 25.092500 31.928100
S 2.727640 25.999800 31.561400
S 2.405850 27.164800 31.673900
S 4.311320 28.040000 4.025700
S 5.258420 28.294500 3.756880
S 1.671700 31.408800 2.816770
S 1.917710 31.055000 3.702020
S 4.016880 29.941400 3.522760
S 3.882160 30.843600 3.400320
S 2.950150 30.958000 3.568980
S 3.373080 30.192900 4.133540
S 2.644960 31.357800 2.766550
S 2.449610 31.831900 3.872010
S 2.018740 32.431000 3.285540
S 1.475330 33.203000 3.027640
S 3.730390 28.238000 4.757620
S 5.582310 28.160200 5.486300
S 6.126270 27.991700 4.675410
S 5.447310 28.897400 4.468830
S 4.549260 28.587300 5.038190
S 4.786900 29.214100 5.705330
S 4.103890 29.750900 4.682630
S 5.044680 29.683500 4.933070
S 3.840540 30.420900 26.948500
S 3.042530 29.830600 26.577500
S 3.222610 31.107200 27.019900
S 4.680590 30.371600 27.510600
S 1.619780 32.349700 27.813400
S 0.961651 33.031800 27.644700
S 3.609120 31.704100 27.686800
S 2.430280 29.401500 28.841700
S 2.770140 28.563600 29.140300
S 2.659250 30.305600 29.065500
S 3.522020 30.612500 29.181000
S 3.983390 30.846000 27.987400
S 4.443970 30.509800 28.849600
S 4.677070 29.808000 28.283700
S 2.493430 33.216800 28.991400
S 1.538750 32.569900 28.735200
S 1.942870 31.714900 28.676600
S 1.917770 31.832300 29.643000
S 2.641130 32.343900 29.343800
S 0.894828 28.409200 30.863700
S 2.091170 28.945400 30.969200
S 3.012050 28.814400 31.171400
S 1.342740 28.887500 31.544600
S 2.101540 30.471400 32.821400
S 2.901770 30.196400 32.324000
S 2.877700 29.668800 31.571800
S 6.292480 28.930000 4.845690
S 32.652500 1.420610 3.924560
S 32.214100 0.756261 4.436780
S 33.218800 1.215470 28.589600
S 32.493200 1.142830 28.015200
S 33.209900 1.493630 29.510200
S 32.524400 0.888486 30.251800
S 32.015100 33.204400 3.508300
S 31.607400 32.444700 3.906540
S 32.278900 32.756700 27.784900
S 32.968800 32.731000 28.446500
S 32.360600 29.525500 30.242100
S 32.586300 28.860400 31.054500
S 32.535000 28.628000 30.135200
S 32.150900 30.422200 29.928800
S 32.678000 31.256400 30.062200
S 31.676700 32.887800 30.431900
S 32.207900 32.089000 30.225000
O 1.126350 3.364400 3.772200
O 1.167390 4.284510 3.548780
O 1.146890 5.383900 4.091840
O 2.351930 5.933890 5.465670
O 1.919710 5.402730 4.736700
O 0.775476 2.349340 6.890730
O 1.081680 3.232800 6.868760
O 1.654610 4.792540 7.435840
O 1.509490 5.497140 6.781930
O 0.745431 6.026090 6.994680
O 1.478350 5.879680 7.897220
O 2.543850 5.789000 6.442000
O 1.056810 5.121940 8.247510
O 0.927888 6.188900 6.106100
O 1.768280 6.407800 7.116200
O 2.668460 6.658990 6.785620
O 32.764300 4.140090 3.469460
O 32.877500 5.101540 3.579690
O 31.182800 4.285710 5.770460
O 31.221400 5.815810 6.044640
O 31.648100 5.102210 5.578210
O 32.778800 1.514070 6.850850
O 32.756500 3.458770 6.348440
O 31.053000 4.507800 6.674810
O 32.572100 4.384300 6.350240
O 31.871400 4.943830 6.665680
O 32.198500 5.805010 6.214610
O 32.650400 6.514910 5.727490
O 32.867500 32.219400 7.103290
O 33.030300 33.079300 6.649940
O 5.968250 1.085800 6.151050
O 5.959270 1.415000 7.084820
O 5.520560 32.086600 3.778170
O 4.577040 32.451000 3.856220
O 4.897350 31.327700 5.208010
O 5.389730 31.383600 6.047920
O 5.256130 32.354200 5.360510
O 6.091960 32.221600 4.496130
O 6.012700 31.836400 5.493800
O 4.533760 32.002400 4.687390
O 5.612720 33.049100 7.045450
O 5.252680 32.741400 6.238810
O 6.581840 1.343130 5.504210
O 7.169910 0.891766 4.860130
O 7.636610 1.660750 5.239790
O 8.551390 2.018620 5.237970
O 8.448210 2.983600 5.201030
O 8.368710 3.626190 4.455470
O 9.249660 3.690520 4.923900
O 9.433190 2.866580 5.461410
O 9.225120 2.043280 6.281210
O 9.205320 1.492790 7.273310
O 9.807790 1.364410 6.583010
O 10.187700 2.528960 7.597260
O 10.238800 1.619880 7.702420
O 9.459700 3.071860 7.399140
O 8.957030 2.962980 6.409230
O 9.892630 2.876110 6.299780
O 9.374790 1.859820 8.172040
O 6.351860 33.116500 4.330240
O 1.889950 2.951130 7.459540
O 1.983090 3.813680 7.911030
O 2.651200 3.504860 7.372510
O 1.400720 3.752640 9.048580
O 1.327060 2.994530 9.702050
O 2.072550 4.386890 8.720420
O 31.653200 2.227140 11.363400
O 32.855500 3.771700 10.878200
O 32.376700 2.754880 10.952600
O 32.498600 3.623880 10.033900
O 33.026100 2.884600 10.132800
O 31.405200 1.775930 12.361500
O 30.654800 2.346330 13.081800
O 31.824100 1.364030 11.625000
O 32.523400 1.864300 12.936200
O 30.900100 2.552030 12.184400
O 33.149500 4.199610 11.671900
O 32.269300 2.836820 12.486600
O 31.952800 3.499550 13.099800
O 32.799900 3.779000 12.750000
O 32.063800 3.357890 11.611000
O 32.258500 4.929440 12.950400
O 33.076300 4.568000 13.215400
O 32.614800 4.928630 12.055600
O 31.076700 1.726530 13.641000
O 31.997000 2.434200 13.488100
O 33.116800 2.068780 13.621100
O 31.701100 1.115990 14.153800
O 31.926900 2.023470 14.436500
O 32.715600 2.599130 14.341800
O 4.324540 5.791170 7.894320
O 3.523860 5.287980 7.604920
O 3.158150 6.027040 11.516700
O 1.499930 5.121400 12.519700
O 2.290410 6.105020 12.644300
O 2.246330 5.646080 11.790500
O 1.975510 4.532070 11.904500
O 0.935030 5.831150 12.303800
O 2.864100 4.824770 11.652900
O 3.024430 5.658840 13.166700
O 2.631710 5.042290 12.523600
O 3.757710 5.986160 12.245800
O 5.209250 6.326780 9.159890
O 4.498360 6.440900 8.549000
O 0.772103 6.368630 10.371400
O 5.052870 6.584930 10.041700
O 5.095900 7.288840 10.658200
O 4.602260 7.354020 11.469300
O 3.888170 6.747820 11.712900
O 32.746000 5.790230 10.986000
O 32.138000 5.825720 11.704300
O 32.479500 6.822290 11.354300
O 32.418300 6.682550 10.364900
O 32.066200 7.620080 10.955800
O 32.440800 8.740710 11.222700
O 33.199400 9.668450 11.168300
O 31.758300 7.689840 11.875600
O 32.705900 6.355600 12.390500
O 32.659900 8.027860 11.900500
O 32.473200 9.528600 11.767600
O 2.388220 6.040230 8.801890
O 3.349550 5.972530 8.557930
O 3.481650 5.416850 9.653670
O 2.759210 5.191030 9.108000
O 4.192340 5.776300 10.958700
O 3.152300 5.633650 10.509800
O 3.811690 4.867950 11.011400
O 4.355530 5.971800 13.183600
O 5.484720 4.694030 11.881000
O 5.164340 5.511320 12.369400
O 5.260120 5.630800 13.358100
O 4.586060 4.978610 11.600600
O 4.962150 7.193160 6.011350
O 5.891470 7.139940 7.459860
O 5.474770 7.611640 6.767200
O 3.557450 6.861860 8.625330
O 3.764360 7.485050 9.630240
O 2.996900 6.902870 9.361850
O 4.638450 7.241730 9.273340
O 5.637410 7.793260 8.817610
O 5.668490 6.968180 8.399840
O 4.728380 8.263530 8.670120
O 4.543660 8.143920 9.603640
O 3.130930 6.654140 10.484300
O 4.126710 6.656060 10.511400
O 4.661850 7.576960 13.036600
O 4.979120 6.741450 13.372700
O 3.426590 7.633360 13.589800
O 4.160480 8.170570 13.906100
O 5.075970 8.025940 13.779400
O 1.362170 1.982870 12.518100
O 1.558530 2.312080 13.372500
O 2.586480 2.389630 12.686800
O 3.556190 2.356850 13.378700
O 1.966180 2.697900 12.086200
O 4.048270 2.020660 14.125800
O 3.998730 1.337650 14.791900
O 1.621030 2.933310 14.110700
O 2.294620 2.855740 14.805200
O 2.568180 2.683280 13.586100
O 3.743300 3.433550 14.981500
O 5.760230 1.267300 16.465800
O 5.768360 2.064230 15.984000
O 3.158940 2.796320 15.308000
O 4.278250 4.256860 15.210200
O 5.191380 2.727080 15.643800
O 4.990430 3.700830 15.533700
O 4.031290 31.197000 13.201600
O 3.235470 29.623700 14.761500
O 2.190120 31.245300 14.999600
O 3.451980 30.569000 13.550100
O 2.684690 30.394400 14.652300
O 3.728480 30.361400 14.392100
O 2.920420 31.245000 14.376800
O 1.853340 31.909200 14.388200
O 2.737560 32.247400 14.675800
O 3.610230 31.937000 14.851500
O 3.389200 33.164000 14.798500
O 3.662290 32.585500 15.551800
O 6.288380 32.932600 16.456400
P 4.657420 4.189550 12.689700
P 4.237690 5.057320 12.714500
P 4.323230 4.779610 13.621800
P 4.388580 5.200840 14.519700
P 4.879700 6.001410 14.178600
P 5.378730 5.524040 16.458700
P 4.763700 5.682300 17.204400
P 4.796500 5.297000 18.078000
P 5.722920 5.347070 17.929500
P 6.125540 1.519380 20.389700
P 5.692510 2.188330 19.827800
P 6.051490 2.693590 20.602600
P 5.500080 5.313800 18.877400
P 5.162620 2.456610 21.939900
P 4.739710 1.687590 22.319500
P 5.231040 2.361820 20.938400
P 5.022360 0.993184 23.185400
P 5.847030 1.906290 22.873400
P 5.742630 0.973797 22.543400
P 4.715440 6.245130 15.084600
P 4.810710 6.176050 16.044200
P 4.675200 33.248200 22.365500
P 6.246240 4.959230 19.283100
P 7.252910 4.577250 20.338900
P 6.903470 5.279350 19.857700
P 6.335020 2.626360 22.288600
P 7.532250 3.848980 20.908700
P 7.717960 3.588040 21.796400
P 6.830060 3.637590 22.216900
P 7.285090 2.832950 22.502100
O 2.200980 1.255400 15.476700
O 1.256960 1.386240 15.254400
O 1.722580 1.270900 16.263100
O 0.921600 4.321550 15.529000
O 0.742481 3.521270 16.044700
O 27.643100 4.799740 12.666000
O 27.534200 4.312330 13.493100
O 26.830800 4.013590 14.099200
O 27.353200 3.846710 14.892300
O 27.778800 4.153110 15.657200
O 27.827200 6.190220 13.348100
O 28.300300 5.367180 13.139200
O 29.289800 5.187380 14.986600
O 28.440400 4.904660 15.165500
O 31.275500 6.110930 14.774100
O 32.036100 1.034240 16.307900
O 33.111100 1.502290 15.886000
O 32.537400 1.954260 16.693400
O 32.895500 0.769499 16.554100
O 28.739300 4.207440 15.676800
O 32.912200 2.797960 16.513600
O 29.339000 5.804880 15.810200
O 30.216500 5.643760 15.580200
O 31.156700 5.536490 15.486400
O 32.790800 5.548420 15.984200
O 33.157400 5.165510 15.201000
O 32.309600 1.308790 17.385000
O 32.158800 6.367520 15.022200
O 32.134100 6.225970 15.942500
O 31.858500 33.073600 17.079500
Z 5.488590 3.566100 16.622900
Z 5.812020 3.149970 18.245300
Z 6.028840 3.899240 17.301600
Z 5.487060 2.932970 17.327800
Z 3.462630 1.834760 19.701400
Z 2.711590 2.279380 20.104700
Z 4.287740 1.760740 19.235700
Z 4.561440 2.186730 20.021900
Z 4.965420 3.071750 20.153600
Z 5.547380 3.825400 20.434300
Z 6.128170 3.196440 19.651500
Z 2.415640 2.211010 22.163900
Z 2.374240 2.160790 21.097000
Z 1.970490 3.016580 21.997300
Z 1.570350 2.680370 21.206400
Z 2.762370 2.991300 20.775800
Z 5.739660 29.146000 14.295300
Z 6.134720 29.423500 15.179000
Z 5.212340 29.548900 15.263800
Z 3.691430 29.989400 16.194200
Z 3.581210 30.731100 16.799300
Z 4.579510 29.700700 15.933000
Z 3.453650 30.817500 18.237100
Z 3.130880 31.368200 17.417600
Z 4.748730 31.186800 18.438100
Z 5.199400 31.896900 17.951900
Z 5.739520 31.615600 18.719500
Z 3.983900 31.145400 18.968600
Z 4.148860 30.072400 18.963300
Z 3.608520 30.536300 19.652700
Z 4.147380 30.878900 20.433500
Z 4.960940 30.430400 19.418000
Z 5.251970 31.307900 19.512500
Z 5.100260 31.059200 20.527100
Z 4.081480 30.541400 21.503600
Z 3.887770 31.278300 22.133500
Z 5.018310 30.666200 21.485200
Z 5.859300 30.850800 21.021300
Z 4.697710 32.007800 22.201900
Z 4.421640 31.545100 21.375700
Z 6.099520 31.340600 23.193000
Z 5.865350 32.377200 23.522400
Z 5.537330 32.205900 22.683300
Z 5.853150 31.970400 24.883100
Z 9.278870 2.074190 18.769200
Z 7.719000 3.422010 18.692100
Z 7.509490 2.930490 17.866500
Z 6.566620 2.867700 17.783700
Z 6.772590 3.861100 18.049300
Z 8.538140 2.686530 18.803300
Z 6.574810 4.737950 17.352600
Z 6.728100 4.779260 18.285200
Z 8.722280 1.805930 19.528700
Z 8.681550 1.797680 20.485700
Z 6.482610 3.974960 20.050600
Z 7.800460 2.702920 19.402200
Z 6.460260 3.747720 18.951700
Z 9.210750 2.183290 21.207600
Z 10.397900 27.645600 26.951200