ITEM: TIMESTEP
0
ITEM: NUMBER OF ATOMS
950
ITEM: BOX BOUNDS pp pp pp
7.2066043876332486e-01 3.3279339561239894e+01
7.2066043876332486e-01 3.3279339561239894e+01
7.2066043876332486e-01 3.3279339561239894e+01
ITEM: ATOMS id mol type x y z 
13685 0 5 4.14656 1.04476 0.846174 
4168 0 5 2.55464 1.75212 3.62021 
18838 0 5 1.25739 6.055 4.08681 
6858 0 5 4.13028 4.41919 3.62454 
8843 0 5 2.53914 4.33831 5.79737 
2767 0 5 3.1944 4.66517 4.49451 
17740 0 5 3.93871 6.05264 5.49285 
25954 0 5 5.7687 3.26235 6.41842 
5546 0 5 5.25912 4.38201 7.16112 
21783 0 5 3.88486 4.29603 8.72092 
1634 0 5 3.77632 4.59782 11.5176 
3762 0 5 5.27163 3.76987 11.8447 
16583 0 5 4.93632 1.39328 15.1173 
10549 0 5 5.93571 4.96109 13.9143 
6669 0 5 5.99215 4.02905 16.9986 
4697 0 5 4.15241 3.27514 17.3315 
12101 0 5 5.68062 4.61132 17.7856 
4893 0 5 1.519 2.41342 19.9723 
14232 0 5 1.61946 1.40438 20.4052 
18078 0 5 4.10092 1.85402 19.9792 
15029 0 5 4.75785 2.41313 20.595 
22348 0 5 2.34548 2.96992 20.4897 
7529 0 5 1.54893 3.36988 22.1636 
3778 0 5 5.68606 1.76268 25.9874 
16374 0 5 4.82009 3.41155 27.0811 
5292 0 5 2.44385 1.49206 28.9463 
14655 0 5 2.40217 1.52986 32.2701 
2008 0 5 1.52752 3.18857 31.5015 
16181 0 5 2.74784 3.5467 33.2491 
25778 0 5 5.14192 11.5005 0.895752 
4768 0 5 5.42311 10.7261 4.35744 
24879 0 5 1.25543 6.35511 6.16836 
6811 0 5 1.57999 7.82024 8.61861 
26492 0 5 6.14137 9.75229 8.86638 
21653 0 5 4.48546 7.82894 9.9535 
15224 0 5 5.06732 6.95447 11.5971 
9245 0 5 2.07455 9.23368 12.5552 
6585 0 5 2.7916 7.03109 13.5356 
21295 0 5 2.30932 7.96342 14.0836 
5133 0 5 0.98941 6.73757 16.7499 
18470 0 5 1.96799 6.58554 16.6854 
15607 0 5 4.03275 6.29309 18.4074 
384 0 5 5.02354 6.80594 17.3622 
18840 0 5 5.06183 9.10895 18.5261 
18674 0 5 3.59563 9.9298 17.367 
19228 0 5 0.784886 9.07767 22.1808 
15714 0 5 0.783273 8.1261 23.0841 
8605 0 5 4.52956 10.13 23.5391 
25260 0 5 5.70781 8.31006 24.7811 
25046 0 5 1.54969 8.69623 27.6031 
10684 0 5 4.615 10.5503 27.2457 
11664 0 5 2.50564 6.49582 29.9639 
20799 0 5 5.39213 10.1004 30.1935 
7007 0 5 5.06003 6.81901 32.7282 
9344 0 5 6.03225 8.55366 32.7518 
22200 0 5 2.62652 14.4522 1.21984 
22645 0 5 3.70684 15.1237 1.48121 
17900 0 5 4.38015 16.0344 1.5115 
14095 0 5 0.89551 12.6533 2.76502 
13710 0 5 5.24162 11.9827 4.07388 
2893 0 5 1.62085 16.365 2.78919 
16393 0 5 2.6848 15.4434 4.86945 
25451 0 5 1.03485 13.5802 9.29708 
16065 0 5 4.23196 12.1538 10.3625 
16859 0 5 4.08153 12.3943 11.4971 
16383 0 5 2.8858 15.7157 10.5361 
24622 0 5 2.46222 14.6667 12.0517 
10456 0 5 4.22836 14.0452 12.3894 
6568 0 5 1.25906 16.9824 12.6217 
25290 0 5 3.05046 12.746 13.4951 
12432 0 5 2.71906 14.591 13.6263 
12292 0 5 5.42781 15.0594 13.7598 
1136 0 5 5.71651 12.2969 19.6988 
20033 0 5 4.40903 16.6387 19.2316 
18349 0 5 2.40747 16.6303 22.1296 
15711 0 5 4.49427 16.2167 20.6261 
12888 0 5 2.87454 11.963 24.145 
898 0 5 1.44466 13.9439 24.1744 
19333 0 5 2.84708 12.5549 25.0786 
7746 0 5 2.04817 14.924 27.3439 
26112 0 5 4.81768 14.6467 28.8539 
9352 0 5 5.78376 13.385 30.5623 
9968 0 5 1.78261 12.6771 31.8367 
16135 0 5 0.948167 13.4459 32.3802 
7976 0 5 4.64887 15.1185 33.0744 
11600 0 5 3.19238 17.0823 5.99753 
1718 0 5 0.735199 19.7264 5.90873 
5664 0 5 3.39825 17.3966 8.0638 
17823 0 5 5.4268 21.901 9.11283 
3389 0 5 3.24858 17.3612 11.5314 
17223 0 5 3.60422 17.8989 10.6894 
6248 0 5 4.93312 20.6076 9.87213 
8091 0 5 2.23667 21.1585 10.4388 
18482 0 5 5.69958 21.5062 10.1217 
97 0 5 4.75414 20.4391 13.0636 
23322 0 5 1.64014 21.0521 12.0226 
22022 0 5 5.62167 17.7661 14.9209 
22621 0 5 2.13145 20.4898 15.1502 
7173 0 5 3.66838 21.9441 14.2594 
26085 0 5 3.70185 19.4783 18.9078 
7842 0 5 3.01227 18.9906 22.1689 
20090 0 5 3.43954 20.8484 22.1471 
9909 0 5 1.53881 20.9736 22.7665 
22829 0 5 4.62366 20.8047 22.5276 
18680 0 5 5.69965 17.8399 25.3221 
26868 0 5 1.21189 20.4124 25.2548 
25808 0 5 4.63645 19.2191 26.4684 
25925 0 5 5.28374 18.8966 28.496 
18795 0 5 2.60139 21.3505 29.9594 
22737 0 5 4.36743 18.4604 32.6966 
22644 0 5 4.57723 19.8994 31.5111 
20057 0 5 4.20175 26.0824 3.51282 
2463 0 5 4.41232 24.4417 4.42691 
17833 0 5 4.38641 22.7454 7.30312 
17484 0 5 1.58573 24.413 6.29417 
25538 0 5 4.17281 27.2289 6.28227 
373 0 5 2.597 22.7791 8.79614 
9612 0 5 3.38377 23.5404 9.00806 
3632 0 5 4.89501 22.743 8.42698 
18047 0 5 3.80779 24.4317 8.53835 
18847 0 5 4.20015 24.6286 10.864 
8667 0 5 5.79077 27.8476 10.3924 
18800 0 5 4.32389 22.6416 12.0298 
11307 0 5 3.40898 24.9049 12.7817 
7002 0 5 4.3045 23.983 13.4879 
12290 0 5 6.03313 22.7542 13.4402 
17095 0 5 3.22657 24.564 14.9154 
12532 0 5 4.24857 22.437 16.4867 
9230 0 5 1.20757 24.5964 17.5747 
3392 0 5 1.58214 25.4468 17.0567 
3621 0 5 2.88077 27.3813 18.1945 
20086 0 5 2.1371 24.8548 22.0887 
13508 0 5 3.30035 24.9275 23.9384 
11626 0 5 4.32973 27.3183 23.7046 
3390 0 5 1.00744 23.298 24.7961 
18046 0 5 1.17936 25.3195 25.813 
22946 0 5 2.52171 26.6589 27.1496 
18809 0 5 3.56989 27.3083 29.6426 
13178 0 5 5.98255 23.5675 29.7039 
25733 0 5 5.5672 22.708 32.6238 
6314 0 5 1.98817 26.9175 33.254 
1011 0 5 1.39087 28.7798 1.76882 
10053 0 5 2.78867 30.8949 1.48117 
25558 0 5 1.01146 28.8273 4.29956 
18330 0 5 5.32137 29.3466 5.91218 
15816 0 5 6.11016 27.9906 4.96423 
7287 0 5 4.16262 30.6625 7.27651 
9069 0 5 0.899436 30.3411 8.55726 
26252 0 5 2.7201 31.8292 8.14121 
21033 0 5 1.53789 28.3338 10.0544 
7350 0 5 5.12515 28.583 13.6041 
17301 0 5 2.35984 30.1603 16.7 
16290 0 5 1.83664 28.9565 20.046 
7627 0 5 1.11088 31.497 19.4292 
17912 0 5 1.1306 31.9023 20.4513 
5125 0 5 2.50606 32.5103 18.841 
8935 0 5 2.03981 31.5584 18.9174 
20063 0 5 3.17423 32.9215 19.6856 
15692 0 5 1.40017 30.7406 20.6695 
22530 0 5 1.9672 33.1618 23.893 
1905 0 5 3.46878 32.1208 23.0457 
1941 0 5 2.97019 31.5523 25.8559 
6233 0 5 2.46973 30.9263 27.8094 
25065 0 5 5.53912 32.0012 27.3085 
6505 0 5 2.9316 31.8294 28.1987 
26851 0 5 5.80562 32.6515 29.433 
1538 0 5 2.79782 28.9464 30.2572 
20178 0 5 0.725534 31.2158 32.9836 
9579 0 5 3.66996 31.1868 32.0281 
17456 0 5 6.18931 4.64601 2.63269 
19047 0 5 8.51451 4.26762 6.20912 
2443 0 5 6.28136 4.48943 7.77927 
19714 0 5 9.77885 6.11245 6.21379 
21651 0 5 11.1419 2.14886 8.65557 
4364 0 5 11.5151 1.019 8.87913 
15620 0 5 10.7535 5.58506 8.85824 
20459 0 5 10.128 2.04096 11.5307 
13572 0 5 8.86112 1.76073 11.8835 
12539 0 5 7.8262 2.31991 15.6135 
14081 0 5 11.2043 1.10535 16.7722 
14227 0 5 8.18616 4.33669 16.8323 
21570 0 5 9.98774 2.95929 16.2132 
26743 0 5 9.00371 5.90544 16.0979 
409 0 5 8.50536 1.04392 19.7709 
11581 0 5 7.70801 3.99479 20.4285 
23051 0 5 8.89595 5.92272 19.1451 
23751 0 5 8.10193 1.22432 22.3115 
22836 0 5 7.47897 4.59449 21.3756 
436 0 5 8.01931 1.46912 24.8623 
14622 0 5 10.764 3.63802 25.729 
25820 0 5 8.49119 4.84993 26.8872 
9149 0 5 8.62864 5.54787 26.2073 
13282 0 5 7.7692 0.877218 28.0285 
21496 0 5 11.1987 1.88686 27.9668 
7273 0 5 9.97888 5.17203 28.0399 
1357 0 5 9.8234 5.37866 29.0882 
16277 0 5 7.26442 2.73281 29.724 
6365 0 5 9.06417 2.97446 30.2532 
21795 0 5 10.8108 0.7698 32.1381 
7342 0 5 8.67642 5.49895 33.2545 
11954 0 5 11.0359 7.14863 2.41908 
23763 0 5 11.1606 8.17544 0.941741 
14610 0 5 8.58197 8.84225 2.96488 
17727 0 5 10.2188 8.0733 2.84724 
19382 0 5 10.65 8.86863 3.33002 
15076 0 5 9.64225 11.4409 2.94205 
11825 0 5 6.87261 11.4929 5.16883 
13738 0 5 7.83042 11.2799 5.92789 
13564 0 5 8.60141 6.32348 6.35244 
14779 0 5 6.31612 6.86138 9.28202 
25928 0 5 9.23433 9.97294 8.4942 
26367 0 5 10.7642 10.5222 8.14629 
14918 0 5 8.25737 10.0506 10.539 
14856 0 5 11.0897 10.9363 11.6971 
26332 0 5 8.02445 6.6686 14.589 
6399 0 5 10.2676 7.60569 13.9427 
5264 0 5 10.8767 9.80485 14.4324 
8816 0 5 11.0478 8.5919 15.9102 
7645 0 5 8.19138 10.9292 16.897 
6402 0 5 7.93795 6.97082 17.661 
1049 0 5 6.53732 10.2262 17.3687 
451 0 5 8.53298 10.2809 20.0117 
10695 0 5 6.78381 6.9339 25.2112 
8239 0 5 10.4485 7.76413 25.947 
13163 0 5 9.41204 9.25643 25.6988 
18106 0 5 11.0818 9.46499 24.4829 
6277 0 5 9.60175 11.2496 25.3824 
15457 0 5 8.28734 6.47693 26.6633 
12720 0 5 11.2827 7.56551 27.042 
3053 0 5 7.83442 7.3587 28.2882 
23777 0 5 9.45543 7.19744 28.7498 
17366 0 5 9.76698 6.1907 28.5111 
20360 0 5 7.53857 8.05349 29.4711 
25544 0 5 6.26031 10.7399 28.316 
14457 0 5 8.82815 6.49979 30.6949 
1597 0 5 7.1169 13.2229 3.80222 
24210 0 5 10.6408 11.9362 4.24145 
9753 0 5 10.4368 16.4918 4.43181 
23947 0 5 10.4239 12.8054 7.35291 
11735 0 5 8.2839 15.7646 6.45536 
19662 0 5 11.3574 16.8604 7.81839 
4561 0 5 6.40936 13.0291 8.60029 
1465 0 5 8.76347 12.7187 8.63609 
11622 0 5 11.0782 16.4832 9.46418 
1632 0 5 6.17032 11.8464 10.2208 
7282 0 5 10.8042 15.0197 10.6588 
19779 0 5 7.85074 16.7555 10.4275 
13647 0 5 7.45418 12.1101 11.9748 
14944 0 5 6.79299 12.9102 12.4532 
499 0 5 8.90732 15.0117 12.5126 
4288 0 5 8.99404 12.8861 14.8714 
25207 0 5 9.61357 13.3723 14.0779 
6050 0 5 9.993 16.7524 15.8571 
15723 0 5 10.42 14.5167 17.1948 
14325 0 5 7.71851 16.2357 22.9129 
25728 0 5 7.42184 13.9693 25.0532 
5406 0 5 6.1834 14.2434 26.0381 
7706 0 5 11.4547 14.8977 26.8047 
20809 0 5 11.1848 14.7712 29.3603 
2066 0 5 10.3343 16.1073 28.2072 
10327 0 5 9.78658 13.3984 29.8895 
4653 0 5 8.10105 12.4344 32.1029 
14846 0 5 7.07995 18.7676 0.724449 
6418 0 5 9.22578 17.6573 1.00616 
178 0 5 10.964 18.0404 2.09572 
23803 0 5 6.66309 20.4083 2.26758 
4264 0 5 7.93035 17.1909 2.8696 
6605 0 5 6.79499 17.0846 2.88159 
1085 0 5 8.48426 18.1554 2.68415 
6446 0 5 8.3189 19.4845 3.00197 
7780 0 5 9.99976 18.5032 7.25921 
18081 0 5 9.20746 20.3611 6.9293 
4356 0 5 6.35681 20.0683 8.98517 
6804 0 5 10.0021 19.0907 11.4336 
5110 0 5 8.04769 21.1385 10.139 
7267 0 5 11.4269 22.1834 10.5708 
15606 0 5 6.80382 17.645 12.3337 
12971 0 5 6.94185 19.3328 11.7266 
13412 0 5 7.34113 20.8069 12.7425 
5456 0 5 8.23548 19.0147 14.8617 
24502 0 5 7.44513 17.3808 15.6256 
3368 0 5 6.741 17.5666 18.5305 
19717 0 5 7.15425 20.3928 20.9377 
10242 0 5 6.37065 21.2708 22.2743 
15490 0 5 6.20107 19.4315 22.638 
15427 0 5 9.3291 18.9042 24.1832 
22006 0 5 9.9555 18.5664 25.8501 
4804 0 5 10.4202 19.4024 28.7161 
10550 0 5 8.31386 18.0973 30.9817 
12924 0 5 7.28447 20.2572 31.3787 
59 0 5 10.8848 19.3446 29.7154 
10950 0 5 6.40491 22.1158 29.8673 
1449 0 5 10.3475 18.2234 32.7741 
7107 0 5 7.78809 19.8081 32.4883 
24594 0 5 7.20269 22.1022 31.9105 
1723 0 5 7.42067 24.1258 2.16103 
20282 0 5 8.6846 22.4491 2.96052 
25119 0 5 9.2117 27.4741 5.34962 
6666 0 5 9.29099 24.1923 7.04656 
20194 0 5 10.7486 26.5656 7.64254 
9057 0 5 6.64687 23.3027 8.05133 
5363 0 5 8.25248 26.7836 8.74164 
3676 0 5 11.1234 23.3535 9.84013 
14466 0 5 10.2433 25.3831 10.3109 
17328 0 5 7.77199 27.201 11.1001 
20338 0 5 10.2416 27.2603 11.5146 
5099 0 5 7.22441 24.6043 12.1311 
3067 0 5 9.63298 27.6189 16.6335 
12805 0 5 8.62424 22.653 19.3314 
19115 0 5 6.8392 27.7666 20.9127 
22812 0 5 6.3399 23.9404 24.1603 
16906 0 5 7.78067 24.3858 22.6626 
3209 0 5 8.7992 25.6737 23.4304 
398 0 5 6.38459 26.3422 22.6954 
8848 0 5 11.2609 23.5875 25.889 
20762 0 5 11.113 25.6647 27.7905 
18792 0 5 11.3 27.6856 27.2355 
1532 0 5 10.9064 25.6355 28.8032 
3755 0 5 7.96493 26.0332 32.915 
12330 0 5 9.19521 30.6185 1.74408 
7995 0 5 7.17954 28.0856 3.07288 
8247 0 5 9.38444 28.8455 3.78862 
221 0 5 7.22852 32.428 3.60252 
22520 0 5 9.23468 31.1191 5.25877 
26628 0 5 7.78213 32.6607 5.78098 
14251 0 5 6.58075 29.4666 6.27052 
22617 0 5 6.67563 28.193 7.23062 
13474 0 5 7.87326 33.0368 6.77306 
14079 0 5 8.45528 30.9993 10.2237 
8353 0 5 8.93817 29.7696 11.2815 
17127 0 5 9.15842 32.5861 13.3825 
24695 0 5 7.14927 28.1874 17.8735 
16224 0 5 11.3181 28.5402 17.5197 
15234 0 5 9.06033 32.3089 17.4631 
14591 0 5 10.9622 28.6485 19.7943 
24025 0 5 8.1835 32.6336 20.5696 
14473 0 5 10.5651 31.2046 21.801 
16765 0 5 6.32493 31.7853 21.2432 
11014 0 5 9.15057 33.1895 22.7327 
8797 0 5 10.8762 28.0973 25.4897 
13911 0 5 10.3221 29.7661 24.9279 
12519 0 5 9.45363 28.4232 27.8262 
22846 0 5 10.5549 29.0832 28.1433 
5350 0 5 7.42385 30.4376 32.9498 
11143 0 5 7.93581 32.3283 31.7247 
5334 0 5 12.1025 1.75683 2.57436 
3285 0 5 15.9396 5.65831 4.04243 
24953 0 5 12.5405 4.07345 5.11441 
6395 0 5 12.474 3.55215 7.91065 
7441 0 5 13.9465 3.03253 7.2724 
21035 0 5 16.6164 1.2793 9.48418 
26730 0 5 14.5262 3.96854 8.15108 
16308 0 5 11.917 4.28231 11.3139 
1349 0 5 12.4156 1.58591 14.9433 
18898 0 5 15.4284 1.73028 14.5739 
11709 0 5 13.1827 3.11101 14.8225 
21789 0 5 15.959 4.80306 16.5339 
10183 0 5 12.2661 0.762626 18.6772 
25660 0 5 14.6248 5.18343 18.7915 
12954 0 5 15.7577 1.74047 20.3327 
10211 0 5 16.7481 2.63568 19.0175 
9497 0 5 15.8314 5.08944 19.3965 
18431 0 5 12.8936 1.67726 21.9485 
21350 0 5 16.501 3.39247 21.7579 
17147 0 5 12.6424 4.90882 21.0366 
15561 0 5 12.6041 1.09788 23.3385 
19964 0 5 13.6806 2.41915 24.6312 
20463 0 5 15.9263 4.29979 25.9211 
15889 0 5 16.6593 2.72953 24.4486 
22089 0 5 15.3628 3.29408 28.2734 
6594 0 5 14.0981 5.91423 32.2697 
21674 0 5 14.9948 4.52336 32.7446 
7028 0 5 13.2412 8.11046 1.85616 
5280 0 5 16.6491 10.6992 3.94842 
25243 0 5 11.8295 7.55588 5.39801 
16633 0 5 13.9414 8.8091 5.51346 
26014 0 5 16.5373 10.6122 5.74997 
2439 0 5 12.0223 7.75809 10.6153 
1903 0 5 12.0597 8.76198 13.0663 
25556 0 5 13.9393 9.21999 14.888 
25667 0 5 13.1884 7.2772 15.6951 
23144 0 5 15.6196 8.37241 15.5706 
5430 0 5 13.1624 10.9486 18.8309 
17902 0 5 15.8775 6.16773 21.0057 
7757 0 5 14.3331 8.61416 20.7516 
23711 0 5 13.6488 9.84318 21.1862 
26644 0 5 15.7793 10.1403 22.3941 
12237 0 5 11.6259 9.61695 22.6334 
25325 0 5 16.9727 7.37353 25.6994 
16188 0 5 16.2889 8.38238 25.8516 
7022 0 5 13.7585 7.43759 30.3179 
21963 0 5 12.8864 9.61021 30.7544 
4808 0 5 16.6494 9.76313 30.7379 
24435 0 5 12.4565 10.3183 32.2098 
5368 0 5 16.8589 11.2984 32.8321 
21675 0 5 13.0492 15.3382 2.46313 
9749 0 5 11.7337 12.7537 7.23701 
1056 0 5 12.732 16.548 6.25814 
388 0 5 13.4221 16.9664 7.42123 
486 0 5 15.5157 13.5443 9.47677 
25218 0 5 12.834 15.3329 8.49288 
4821 0 5 16.087 16.8238 9.06272 
24611 0 5 14.4155 12.8043 10.2867 
6896 0 5 15.6748 16.2587 10.9646 
24417 0 5 15.6571 12.4651 14.2961 
3549 0 5 13.3797 14.7851 14.0455 
10288 0 5 13.0109 12.5464 20.3297 
975 0 5 15.3066 12.6754 20.2742 
10718 0 5 16.8937 13.0681 23.9064 
12393 0 5 16.3292 11.6089 23.7879 
15340 0 5 11.6493 15.2149 25.6137 
12223 0 5 16.8174 16.0986 24.8924 
9196 0 5 14.1685 13.208 27.6318 
4928 0 5 16.081 14.5185 27.8589 
24218 0 5 15.8154 11.9401 32.8842 
16748 0 5 13.1702 14.4367 33.0005 
5640 0 5 12.9872 16.2934 32.3515 
5115 0 5 13.5492 19.4582 2.21893 
17345 0 5 16.0953 21.3768 1.75449 
16271 0 5 12.6565 19.6008 4.00349 
24416 0 5 14.4027 21.5367 5.35779 
66 0 5 11.8593 17.7914 6.20752 
4221 0 5 12.841 21.2622 7.91987 
18120 0 5 13.1694 18.4189 9.25935 
10417 0 5 15.1893 17.3523 9.5704 
15967 0 5 16.2525 19.3011 10.6267 
21816 0 5 15.5665 17.6242 11.7312 
19994 0 5 13.5389 20.9165 11.7055 
21875 0 5 13.0035 18.8824 13.5816 
25727 0 5 16.7085 20.102 13.5452 
12230 0 5 16.8921 21.3764 16.6553 
13104 0 5 12.8816 17.4471 17.1504 
23024 0 5 13.4226 18.9465 20.4878 
1527 0 5 12.2112 21.568 21.7082 
8617 0 5 12.7461 18.2698 23.024 
2350 0 5 11.9223 20.5157 24.2971 
21562 0 5 13.6803 19.7416 24.4496 
10227 0 5 14.088 21.3467 25.4807 
16215 0 5 16.8552 17.9858 27.3144 
6545 0 5 15.0057 17.0592 29.2492 
22245 0 5 12.9547 18.986 29.3584 
20087 0 5 13.5118 19.9829 29.2884 
18446 0 5 13.1099 21.5213 28.1899 
24584 0 5 14.5659 17.3773 30.3066 
14353 0 5 14.0608 18.5336 30.9157 
3350 0 5 13.8657 27.5246 0.743305 
12376 0 5 13.108 24.472 4.58751 
14234 0 5 15.8595 25.1011 6.0509 
7968 0 5 16.3197 26.0287 5.81271 
4256 0 5 13.5292 26.0894 4.6321 
18678 0 5 12.2187 23.8959 7.11065 
6706 0 5 14.6069 25.5825 7.33162 
20758 0 5 16.5577 25.0997 7.35038 
4629 0 5 16.7566 26.0735 6.73875 
15883 0 5 12.9344 24.9665 8.08567 
26157 0 5 12.676 22.7574 11.4935 
25222 0 5 14.392 25.734 14.1091 
8000 0 5 14.3917 26.0992 16.8234 
12709 0 5 12.6207 24.885 21.6018 
4371 0 5 14.4057 26.3001 21.6886 
7536 0 5 14.8994 26.0583 23.0065 
26459 0 5 15.0185 24.5995 24.5441 
10722 0 5 14.8615 26.7829 25.6777 
25876 0 5 15.428 27.6218 25.3977 
26681 0 5 14.5314 25.3738 26.8484 
7196 0 5 14.1654 26.2289 26.3109 
26968 0 5 15.4363 26.9736 29.2686 
10414 0 5 14.2899 23.8826 30.2785 
23342 0 5 16.8015 26.7127 33.1044 
1001 0 5 15.0457 32.2413 2.43176 
23016 0 5 11.9188 33.1613 6.73289 
18672 0 5 12.4939 27.9981 8.12146 
15430 0 5 16.0759 31.7968 9.6267 
18077 0 5 13.8594 31.6048 15.803 
23788 0 5 16.2265 29.8628 25.7156 
3774 0 5 16.6406 28.4767 28.6263 
18949 0 5 14.7042 29.718 31.6139 
23849 0 5 16.9865 32.6709 31.5877 
14830 0 5 17.1737 1.55482 4.10098 
5121 0 5 18.2615 3.58768 4.21038 
10503 0 5 20.3096 3.30967 3.03811 
13568 0 5 18.619 5.33779 3.00578 
8799 0 5 19.8152 4.86292 3.07987 
3710 0 5 21.8477 5.19377 3.44568 
4796 0 5 17.4466 0.827295 4.94954 
3427 0 5 18.799 3.18723 6.82031 
6830 0 5 21.5593 3.47368 6.53259 
4222 0 5 19.5914 1.46391 10.0789 
2681 0 5 18.4355 2.39242 13.3482 
14294 0 5 20.2822 3.21875 12.3297 
3190 0 5 20.097 4.38425 14.8123 
16136 0 5 20.5733 2.33019 16.9873 
8542 0 5 19.9691 1.8306 15.2618 
13539 0 5 19.9978 3.70106 16.242 
51 0 5 22.2609 4.02798 16.4994 
9136 0 5 22.0799 5.99285 16.396 
15981 0 5 17.5622 1.2976 17.166 
19453 0 5 20.6478 4.29419 19.7135 
16660 0 5 17.5262 2.61669 21.6918 
7109 0 5 21.7142 6.12741 21.982 
13177 0 5 19.5676 2.16654 23.7418 
17379 0 5 18.9352 4.15994 27.3298 
24944 0 5 19.3916 0.967562 28.3848 
12344 0 5 20.4065 2.64208 28.7787 
21346 0 5 22.2021 1.83207 32.6439 
16753 0 5 18.0668 2.65583 32.0148 
25285 0 5 21.9211 2.82001 32.2959 
16191 0 5 19.9777 5.77574 31.5704 
11625 0 5 18.5031 7.35322 0.74162 
19075 0 5 20.9444 8.19607 1.43654 
19063 0 5 18.2774 11.5524 2.87595 
8930 0 5 20.6635 11.4695 4.34199 
12127 0 5 21.8493 11.4614 6.91843 
2827 0 5 18.4989 6.7385 8.7167 
10482 0 5 17.3281 9.48876 8.80281 
21853 0 5 18.9262 11.4449 9.41296 
8106 0 5 22.228 6.47173 10.4048 
5646 0 5 20.9901 10.8531 10.9509 
14326 0 5 18.1212 6.26299 11.7842 
23766 0 5 19.3458 6.3418 12.2665 
2847 0 5 20.5365 6.46111 12.1824 
7579 0 5 17.1102 9.45517 12.426 
19313 0 5 19.3633 9.40241 14.7211 
22368 0 5 21.4211 6.79842 20.069 
8051 0 5 20.0617 7.03635 21.7943 
12329 0 5 17.6062 10.6965 25.1852 
3612 0 5 17.4317 9.54915 26.8198 
16674 0 5 21.9487 7.3339 28.6685 
3143 0 5 18.267 10.5718 29.3404 
13986 0 5 19.2257 8.41663 30.3427 
22642 0 5 21.1668 6.3468 33.2773 
26078 0 5 20.9144 15.0994 1.51407 
18339 0 5 22.3248 16.2624 1.95677 
13170 0 5 22.1029 15.6386 1.07164 
13819 0 5 17.8485 12.274 6.34416 
18762 0 5 20.6913 12.6535 6.18022 
8705 0 5 20.7268 12.2466 8.28922 
23721 0 5 17.8609 13.9342 8.13041 
18496 0 5 18.8752 15.9119 11.2521 
9972 0 5 17.5701 14.8741 13.7144 
18794 0 5 19.0488 14.3438 15.0854 
11249 0 5 21.8765 14.0754 15.089 
5405 0 5 19.9194 15.458 13.6503 
24765 0 5 19.3999 14.7946 15.9713 
4635 0 5 17.453 15.2529 15.9857 
23343 0 5 17.6118 15.0939 18.4005 
3152 0 5 22.1438 14.9205 18.2771 
25513 0 5 18.9951 16.553 17.0931 
2581 0 5 19.3756 15.0274 19.3203 
15429 0 5 19.2828 16.9763 23.8581 
8142 0 5 20.5147 13.0374 26.8801 
93 0 5 18.0232 14.2315 30.1435 
22571 0 5 21.1735 11.7942 32.2349 
3713 0 5 17.4992 16.4658 32.5071 
5026 0 5 18.3616 15.9274 32.1366 
25718 0 5 17.7596 18.2412 3.96561 
9761 0 5 20.6959 19.7928 2.87809 
19214 0 5 21.4162 22.3422 4.04786 
8016 0 5 18.9789 18.3656 5.69942 
15991 0 5 19.5565 18.1066 10.0359 
26652 0 5 19.1627 17.1487 10.3693 
9161 0 5 20.0157 20.0519 14.1767 
15953 0 5 19.2693 20.2311 14.8917 
20221 0 5 17.1744 20.9762 14.3319 
23726 0 5 21.1362 21.8836 14.9571 
20330 0 5 17.504 17.1434 18.3783 
20968 0 5 18.4192 18.7557 19.5723 
16438 0 5 17.0961 20.7935 19.2709 
5489 0 5 21.8368 21.4239 19.6338 
5092 0 5 18.6431 22.213 21.939 
18097 0 5 19.0471 18.1393 27.6726 
22874 0 5 21.92 18.0543 27.0392 
23023 0 5 20.5749 17.4995 28.0876 
5785 0 5 21.6026 17.5636 28.03 
25991 0 5 17.4418 20.5861 28.7286 
4101 0 5 17.5235 21.6171 29.2672 
23892 0 5 19.7692 18.582 30.197 
4734 0 5 18.2899 19.3101 30.0042 
20636 0 5 19.1126 20.6844 30.0442 
16715 0 5 19.9474 19.8247 31.6172 
7483 0 5 18.3444 20.9441 33.1698 
4355 0 5 21.5461 24.6398 2.40202 
12302 0 5 18.2632 26.5442 4.01399 
1173 0 5 18.7694 27.3483 4.18452 
2964 0 5 18.4502 25.9726 5.76772 
12962 0 5 18.6282 26.701 4.9576 
20234 0 5 19.1349 27.4805 5.2622 
26518 0 5 19.0217 26.7913 6.00457 
19254 0 5 19.3323 23.6179 7.38854 
14305 0 5 18.3042 25.3157 6.51139 
20910 0 5 17.1345 27.1296 7.26347 
11268 0 5 19.3984 27.6537 6.30433 
21889 0 5 17.7291 23.0638 8.77583 
2214 0 5 22.253 23.7827 12.4408 
22002 0 5 19.8804 24.2527 13.1971 
26390 0 5 19.6664 26.6001 12.5808 
12474 0 5 20.9675 26.1819 12.4897 
698 0 5 17.4866 22.7993 13.9334 
10566 0 5 21.0816 24.2217 14.2736 
2355 0 5 20.0239 25.6404 14.8028 
11142 0 5 17.9513 25.3706 17.6606 
10381 0 5 17.3671 26.2464 17.8963 
2562 0 5 18.5914 26.8485 18.204 
19531 0 5 21.9157 27.7738 18.1899 
12699 0 5 18.5787 25.691 24.0165 
1613 0 5 19.484 24.717 23.3435 
6361 0 5 20.3764 23.8413 25.2118 
14365 0 5 18.7233 27.299 26.5494 
3698 0 5 18.6684 26.4015 27.1822 
22077 0 5 20.9262 27.3079 27.2934 
9834 0 5 21.7129 22.6024 29.9624 
18723 0 5 20.2927 24.6121 31.4112 
8148 0 5 20.7508 26.861 30.1553 
3406 0 5 17.1147 28.3828 3.88572 
14349 0 5 17.4176 28.4021 5.22635 
22761 0 5 17.754 27.9791 7.12691 
11746 0 5 17.7866 28.6385 6.17968 
10813 0 5 19.5283 30.3264 6.87029 
20410 0 5 21.1298 29.8167 7.93684 
6793 0 5 20.7597 31.2905 7.00044 
19074 0 5 22.3321 28.4506 8.04406 
8196 0 5 19.3783 29.004 10.836 
7996 0 5 18.2382 28.7293 13.7583 
15135 0 5 22.1366 29.2637 13.8566 
17745 0 5 20.0034 28.0044 15.9675 
23816 0 5 18.4866 33.1549 16.7129 
10535 0 5 20.9495 28.2289 18.7296 
26776 0 5 18.4651 30.4208 18.1659 
15874 0 5 19.8492 28.3388 19.356 
10521 0 5 20.8111 28.8738 19.5632 
26022 0 5 20.2841 30.065 19.4803 
3914 0 5 21.9093 31.4915 20.0381 
18003 0 5 17.9505 29.5971 22.1019 
13039 0 5 20.893 29.6815 22.4207 
6055 0 5 19.2703 28.9521 23.8367 
12365 0 5 18.4707 29.4299 25.1375 
23424 0 5 20.029 30.111 26.9277 
12570 0 5 20.2761 29.9614 29.0513 
9906 0 5 21.0752 31.8241 27.989 
13419 0 5 17.2723 32.2094 30.1182 
11712 0 5 21.2193 29.6209 32.5199 
25678 0 5 21.7225 28.0964 31.9025 
2959 0 5 17.0099 30.422 31.7975 
23764 0 5 19.176 30.8972 33.2282 
26120 0 5 19.792 33.1242 32.8261 
10737 0 5 21.6397 32.956 32.9467 
14108 0 5 26.913 5.49932 1.70018 
6359 0 5 27.1597 1.39391 4.22435 
19138 0 5 23.3868 3.87871 5.43809 
21677 0 5 27.3847 4.09957 4.71401 
2752 0 5 23.3041 1.01818 7.4804 
25720 0 5 25.1122 2.02834 6.74399 
7688 0 5 22.8682 0.858894 9.43122 
26198 0 5 25.1156 0.971945 8.59285 
5597 0 5 24.949 2.22811 8.97052 
24099 0 5 26.0627 1.09507 8.46547 
19173 0 5 27.4691 3.79404 8.80857 
792 0 5 23.4782 0.82736 10.5345 
9265 0 5 25.7397 0.977205 11.252 
1354 0 5 25.3239 2.54424 9.82372 
11271 0 5 24.1453 4.39543 11.2174 
16672 0 5 25.8548 5.37221 11.385 
20265 0 5 24.1193 2.09884 12.6089 
2883 0 5 25.4709 3.8436 12.4282 
26404 0 5 22.7307 2.16735 17.4111 
1086 0 5 25.3914 3.04391 17.359 
18588 0 5 25.8774 3.98219 17.0978 
3309 0 5 25.6142 4.81075 18.2248 
18544 0 5 27.3967 5.61849 17.4143 
18964 0 5 27.3762 2.34073 19.1567 
4109 0 5 25.0695 5.92005 21.4013 
25521 0 5 26.6308 5.2221 21.0901 
12102 0 5 27.0697 3.984 23.8138 
10229 0 5 22.4595 4.35927 23.3933 
13733 0 5 27.5905 6.08833 23.6196 
2710 0 5 24.3733 3.43024 24.248 
17637 0 5 23.6663 0.795652 27.0555 
11042 0 5 25.3926 2.73731 26.3074 
7808 0 5 23.8798 2.94865 27.8553 
14097 0 5 25.5947 1.89154 30.018 
12771 0 5 25.8855 5.98372 30.5801 
24961 0 5 25.4287 2.0357 31.7594 
11542 0 5 25.5189 4.35918 33.1546 
25131 0 5 26.7135 9.50739 1.44642 
1886 0 5 25.1771 6.92851 4.36239 
21227 0 5 23.3418 6.73142 10.6692 
14231 0 5 25.1188 11.2194 10.7152 
171 0 5 25.1307 6.60617 13.1033 
15704 0 5 25.9555 10.92 14.0822 
14048 0 5 24.621 11.4637 14.0248 
18338 0 5 23.2019 11.461 18.2689 
26807 0 5 26.791 9.96066 18.671 
6227 0 5 24.6227 9.60195 20.5499 
14216 0 5 27.7992 9.00384 19.8604 
17210 0 5 23.4321 11.4488 20.4293 
18197 0 5 24.9302 7.42063 23.3322 
16770 0 5 27.8085 7.67482 23.1773 
9459 0 5 27.3969 10.4783 27.1797 
2563 0 5 24.1929 7.30523 31.4062 
5469 0 5 26.8462 8.48235 30.6309 
18900 0 5 22.9071 11.1182 32.0628 
18319 0 5 23.2752 16.6436 1.10215 
4469 0 5 26.7429 16.3727 1.79142 
10961 0 5 23.0448 14.4325 3.77938 
304 0 5 24.165 15.3793 6.07206 
12972 0 5 27.0248 16.4227 5.55959 
7625 0 5 22.9474 13.9404 6.37868 
21589 0 5 23.9133 14.5875 6.80533 
9871 0 5 24.9798 14.4616 7.07293 
22652 0 5 25.9156 14.9062 6.7223 
9239 0 5 23.9033 16.588 7.41656 
17100 0 5 24.1789 12.3205 8.34301 
9423 0 5 27.2787 12.9408 10.4275 
21793 0 5 26.0764 15.8582 10.0712 
1406 0 5 22.6819 15.9871 12.0635 
9642 0 5 27.8177 14.3252 16.5917 
4515 0 5 23.8154 13.6018 20.0207 
8275 0 5 26.7176 13.9996 19.9166 
18656 0 5 24.6602 12.8826 20.8482 
17101 0 5 24.0301 14.9655 21.3372 
21028 0 5 26.0312 14.1485 21.762 
22559 0 5 25.355 12.5094 22.9835 
20349 0 5 25.8603 13.4702 22.5326 
18534 0 5 24.7675 16.6049 23.7926 
22303 0 5 23.358 16.6731 24.9907 
15655 0 5 25.1747 13.9034 26.7344 
12188 0 5 24.9887 16.3068 27.225 
23665 0 5 23.3058 16.62 29.2121 
18337 0 5 26.3219 17.6168 3.32773 
10838 0 5 26.5766 20.0924 2.57564 
25676 0 5 25.5659 18.5338 5.68822 
10293 0 5 25.5086 17.2172 6.83983 
24864 0 5 27.4783 19.9794 8.07209 
25652 0 5 23.7511 21.7295 8.53698 
25298 0 5 23.4761 19.9591 10.0394 
20214 0 5 24.5406 17.013 12.643 
22202 0 5 23.3968 18.2494 13.5961 
2527 0 5 25.9031 18.6624 13.4441 
18826 0 5 24.3265 20.0349 14.3919 
25620 0 5 24.3137 21.4521 14.6926 
310 0 5 26.9413 21.7268 14.561 
15150 0 5 26.5531 21.9414 16.9037 
3889 0 5 22.9232 17.0816 18.5648 
18063 0 5 26.4093 17.2239 18.6643 
20997 0 5 23.0678 19.5925 19.4417 
18773 0 5 23.4101 20.5514 20.5588 
21672 0 5 26.6709 22.06 19.7173 
17812 0 5 23.3475 17.8093 21.7819 
6618 0 5 27.2656 18.3517 22.3229 
7845 0 5 27.3122 20.1099 25.0638 
5025 0 5 27.505 21.2693 24.8676 
18072 0 5 23.2818 19.4747 27.524 
24592 0 5 27.3284 19.6857 29.3635 
24559 0 5 25.4942 19.8586 31.4549 
22841 0 5 25.9487 20.9797 30.2451 
12960 0 5 26.2296 22.3386 29.9166 
5386 0 5 27.8304 18.7021 33.2638 
15941 0 5 24.4606 20.4222 31.606 
12220 0 5 22.9029 23.0216 2.42697 
1712 0 5 24.6268 23.6313 2.19026 
4902 0 5 25.6536 25.0584 3.40632 
9597 0 5 26.3049 26.4985 2.55837 
4226 0 5 24.758 25.236 5.64001 
14252 0 5 24.6709 27.7545 5.1067 
21270 0 5 26.889 26.566 4.66463 
3668 0 5 24.8096 23.6025 6.39171 
11686 0 5 22.9589 27.3611 7.59125 
25127 0 5 22.6161 26.3911 8.20723 
17195 0 5 25.3509 26.0303 10.3842 
6881 0 5 26.3166 25.3759 10.1757 
6357 0 5 26.0955 23.3097 13.3695 
15661 0 5 23.2404 24.3597 15.1376 
4887 0 5 23.6558 27.3858 13.7074 
9047 0 5 27.6003 24.19 21.7896 
22512 0 5 25.2481 26.8049 21.1918 
15663 0 5 24.837 23.6016 25.5435 
10382 0 5 25.691 27.6496 25.7757 
25864 0 5 25.5797 27.6486 24.6857 
152 0 5 25.9246 24.3554 27.8253 
9924 0 5 24.0163 23.053 28.718 
14906 0 5 25.327 22.5299 28.0639 
7749 0 5 26.9126 24.438 27.9413 
14611 0 5 25.2744 22.8147 30.373 
25789 0 5 26.654 26.9835 29.9599 
3317 0 5 23.1486 23.6591 32.3821 
12561 0 5 25.8765 25.8772 32.8681 
1929 0 5 27.5508 24.3272 32.2038 
16981 0 5 25.6705 27.3048 31.5889 
15707 0 5 24.1817 28.4326 1.95981 
11320 0 5 25.1568 32.2937 1.68506 
9975 0 5 24.2272 31.0065 4.81217 
2150 0 5 22.4475 30.3665 5.21427 
18958 0 5 24.674 33.226 4.60787 
20994 0 5 26.9896 29.6763 7.5162 
5279 0 5 26.7239 32.7484 8.46723 
7715 0 5 24.7918 29.964 11.2589 
16858 0 5 23.2952 32.3411 10.6674 
7490 0 5 24.7409 28.2854 13.0352 
21659 0 5 25.2842 30.9353 13.0536 
14061 0 5 23.889 32.743 13.2089 
83 0 5 25.4622 31.8481 12.4709 
20773 0 5 25.7803 33.1416 12.2625 
22037 0 5 25.8573 28.3394 13.5291 
22094 0 5 27.207 30.6845 16.2455 
3210 0 5 27.2005 29.6042 18.6393 
6284 0 5 24.1488 31.2227 17.9164 
5904 0 5 24.3123 30.5106 17.0797 
21395 0 5 24.5711 32.5594 23.4778 
8929 0 5 23.3889 30.4282 25.0502 
1934 0 5 24.2904 31.0253 25.2817 
7795 0 5 26.9475 32.7046 24.4218 
25945 0 5 26.568 29.1009 26.5211 
20692 0 5 25.0634 31.3647 27.7148 
19249 0 5 22.6504 31.1826 29.5012 
10447 0 5 24.5426 31.1796 29.4158 
8378 0 5 23.7851 28.4034 30.9512 
4676 0 5 26.4091 32.036 31.2635 
24570 0 5 25.9155 28.4124 31.4925 
5248 0 5 24.9347 30.688 31.4806 
14371 0 5 29.8655 1.67697 0.849339 
3195 0 5 32.8106 0.729794 0.846686 
22149 0 5 28.6841 3.73536 1.15431 
15659 0 5 33.1322 4.12865 2.93621 
13251 0 5 32.9364 4.71821 5.15522 
14384 0 5 29.8854 3.1404 7.87757 
3052 0 5 32.8717 5.9614 6.64384 
963 0 5 30.9702 1.01062 10.8106 
16977 0 5 28.9205 3.54582 9.81829 
18973 0 5 31.4627 4.70315 10.5846 
4255 0 5 30.9464 3.31075 14.9476 
4489 0 5 28.7204 1.24555 17.2551 
22524 0 5 30.6569 2.28242 17.7326 
14702 0 5 32.44 1.31622 18.678 
21642 0 5 30.5737 3.36718 17.1345 
13283 0 5 31.6147 5.52207 18.5711 
18079 0 5 28.6087 5.50509 19.0172 
3196 0 5 32.125 2.41562 22.8758 
6604 0 5 30.2122 1.48067 25.6397 
12248 0 5 33.1189 1.50112 25.0544 
22872 0 5 30.6081 1.37457 27.5768 
4813 0 5 31.7269 1.73751 30.2499 
2133 0 5 29.0955 3.45521 30.6836 
9178 0 5 28.1755 7.0026 1.83611 
1794 0 5 33.02 9.56151 0.955917 
19965 0 5 30.0272 11.3872 1.56926 
18126 0 5 30.9956 9.75612 2.93541 
9254 0 5 29.9764 6.83573 5.16619 
25745 0 5 32.7695 6.64299 5.88007 
743 0 5 31.8831 6.93779 5.4475 
10575 0 5 28.0486 10.4292 6.03794 
24102 0 5 31.9323 6.20626 6.22515 
5297 0 5 33.0604 9.81772 7.55876 
696 0 5 30.3371 9.31306 9.57533 
18054 0 5 32.6694 6.24276 16.1241 
20855 0 5 32.7968 7.28407 20.4574 
18832 0 5 30.5983 9.69553 19.8913 
9563 0 5 29.2028 9.46854 24.6139 
6214 0 5 33.199 11.0146 24.7052 
6582 0 5 28.5738 7.33818 28.3827 
20642 0 5 29.663 7.51954 29.28 
13237 0 5 32.9282 6.29257 28.3304 
18772 0 5 32.7121 9.3969 28.0798 
2597 0 5 31.7388 9.48893 30.6938 
24845 0 5 31.3945 11.4873 31.2858 
302 0 5 28.1942 7.51641 32.0048 
13638 0 5 32.6577 8.19248 32.2142 
3141 0 5 29.3376 13.0264 1.48647 
7858 0 5 30.9432 11.8846 1.19886 