ITEM: TIMESTEP
0
ITEM: NUMBER OF ATOMS
900
ITEM: BOX BOUNDS pp pp pp
0.0000000000000000e+00 3.4000000000000000e+01
0.0000000000000000e+00 3.4000000000000000e+01
0.0000000000000000e+00 3.4000000000000000e+01
ITEM: ATOMS id mol type x y z 
1917 0 3 3.8 3.8 2.5 
3605 0 3 0.5 4.9 4.5 
4620 0 3 3.8 0.5 5.5 
5404 0 3 0.5 3.8 6.5 
6301 0 3 0.5 0.5 7.5 
8222 0 3 4.9 1.6 9.5 
9002 0 3 0.5 1.6 10.5 
10803 0 3 0.5 2.7 12.5 
10924 0 3 4.9 3.8 12.5 
11701 0 3 0.5 0.5 13.5 
11764 0 3 2.7 3.8 13.5 
15303 0 3 0.5 2.7 17.5 
18058 0 3 1.6 2.7 20.5 
18056 0 3 1.6 4.9 20.5 
19022 0 3 4.9 1.6 21.5 
19024 0 3 4.9 3.8 21.5 
20764 0 3 2.7 3.8 23.5 
21722 0 3 4.9 1.6 24.5 
21658 0 3 1.6 2.7 24.5 
21665 0 3 2.7 4.9 24.5 
23402 0 3 0.5 1.6 26.5 
23405 0 3 0.5 4.9 26.5 
24421 0 3 4.9 0.5 27.5 
26222 0 3 4.9 1.6 29.5 
127 0 3 4.9 7.1 0.5 
111 0 3 3.8 10.4 0.5 
908 0 3 0.5 8.2 1.5 
1809 0 3 0.5 9.3 2.5 
3608 0 3 0.5 8.2 4.5 
3728 0 3 4.9 8.2 4.5 
3712 0 3 3.8 9.3 4.5 
4568 0 3 2.7 8.2 5.5 
5452 0 3 1.6 9.3 6.5 
10011 0 3 3.8 10.4 11.5 
10926 0 3 4.9 6 12.5 
10927 0 3 4.9 7.1 12.5 
10912 0 3 3.8 9.3 12.5 
11768 0 3 2.7 8.2 13.5 
13510 0 3 0.5 10.4 15.5 
15306 0 3 0.5 6 17.5 
16207 0 3 0.5 7.1 18.5 
16328 0 3 4.9 8.2 18.5 
18054 0 3 1.6 7.1 20.5 
18967 0 3 2.7 7.1 21.5 
20706 0 3 0.5 6 23.5 
20827 0 3 4.9 7.1 23.5 
20830 0 3 4.9 10.4 23.5 
21654 0 3 1.6 7.1 24.5 
22507 0 3 0.5 7.1 25.5 
23409 0 3 0.5 9.3 26.5 
23469 0 3 2.7 9.3 26.5 
24430 0 3 4.9 10.4 27.5 
25207 0 3 0.5 7.1 28.5 
25329 0 3 4.9 9.3 28.5 
107 0 3 3.8 14.8 0.5 
1933 0 3 4.9 13.7 2.5 
3671 0 3 2.7 11.5 4.5 
3613 0 3 0.5 13.7 4.5 
5415 0 3 0.5 15.9 6.5 
6409 0 3 3.8 12.6 7.5 
8172 0 3 2.7 12.6 9.5 
8233 0 3 4.9 13.7 9.5 
8207 0 3 3.8 14.8 9.5 
9072 0 3 2.7 12.6 10.5 
9946 0 3 1.6 15.9 11.5 
10931 0 3 4.9 11.5 12.5 
15432 0 3 4.9 12.6 17.5 
17171 0 3 2.7 11.5 19.5 
17233 0 3 4.9 13.7 19.5 
18109 0 3 3.8 12.6 20.5 
18948 0 3 1.6 13.7 21.5 
19874 0 3 2.7 14.8 22.5 
23446 0 3 1.6 15.9 26.5 
24434 0 3 4.9 14.8 27.5 
25333 0 3 4.9 13.7 28.5 
25307 0 3 3.8 14.8 28.5 
25334 0 3 4.9 14.8 28.5 
26114 0 3 0.5 14.8 29.5 
26234 0 3 4.9 14.8 29.5 
918 0 3 0.5 19.2 1.5 
979 0 3 2.7 20.3 1.5 
1040 0 3 4.9 21.4 1.5 
1937 0 3 4.9 18.1 2.5 
1820 0 3 0.5 21.4 2.5 
2717 0 3 0.5 18.1 3.5 
2778 0 3 2.7 19.2 3.5 
3676 0 3 2.7 17 4.5 
3705 0 3 3.8 17 4.5 
3738 0 3 4.9 19.2 4.5 
4604 0 3 3.8 18.1 5.5 
5445 0 3 1.6 17 6.5 
6378 0 3 2.7 19.2 7.5 
7243 0 3 1.6 19.2 8.5 
8120 0 3 0.5 21.4 9.5 
8141 0 3 1.6 21.4 9.5 
9043 0 3 1.6 19.2 10.5 
9943 0 3 1.6 19.2 11.5 
10881 0 3 2.7 22.5 12.5 
11837 0 3 4.9 18.1 13.5 
11743 0 3 1.6 19.2 13.5 
13516 0 3 0.5 17 15.5 
13600 0 3 3.8 22.5 15.5 
15376 0 3 2.7 17 17.5 
15440 0 3 4.9 21.4 17.5 
15321 0 3 0.5 22.5 17.5 
17201 0 3 3.8 21.4 19.5 
18020 0 3 0.5 21.4 20.5 
18140 0 3 4.9 21.4 20.5 
19001 0 3 3.8 21.4 21.5 
20781 0 3 2.7 22.5 23.5 
22637 0 3 4.9 18.1 25.5 
22520 0 3 0.5 21.4 25.5 
23540 0 3 4.9 21.4 26.5 
25242 0 3 1.6 20.3 28.5 
97 0 3 3.8 25.8 0.5 
35 0 3 1.6 28 0.5 
924 0 3 0.5 25.8 1.5 
985 0 3 2.7 26.9 1.5 
2736 0 3 1.6 26.9 3.5 
2726 0 3 0.5 28 3.5 
4582 0 3 2.7 23.6 5.5 
4644 0 3 4.9 25.8 5.5 
6323 0 3 0.5 24.7 7.5 
6384 0 3 2.7 25.8 7.5 
6395 0 3 3.8 28 7.5 
7299 0 3 3.8 23.6 8.5 
7235 0 3 1.6 28 8.5 
9025 0 3 0.5 26.9 10.5 
9937 0 3 1.6 25.8 11.5 
10898 0 3 3.8 24.7 12.5 
11842 0 3 4.9 23.6 13.5 
12684 0 3 2.7 25.8 14.5 
12685 0 3 2.7 26.9 14.5 
13582 0 3 2.7 23.6 15.5 
14423 0 3 0.5 24.7 16.5 
17245 0 3 4.9 26.9 19.5 
17186 0 3 2.7 28 19.5 
18099 0 3 3.8 23.6 20.5 
18998 0 3 3.8 24.7 21.5 
21683 0 3 2.7 24.7 24.5 
22644 0 3 4.9 25.8 25.5 
23499 0 3 3.8 23.6 26.5 
25345 0 3 4.9 26.9 28.5 
25286 0 3 2.7 28 28.5 
26123 0 3 0.5 24.7 29.5 
28 0 3 0.5 30.2 0.5 
2849 0 3 4.9 31.3 3.5 
5431 0 3 1.6 32.4 6.5 
6390 0 3 2.7 32.4 7.5 
6391 0 3 3.8 32.4 7.5 
7227 0 3 0.5 29.1 8.5 
9927 0 3 0.5 29.1 11.5 
13589 0 3 2.7 31.3 15.5 
13650 0 3 4.9 32.4 15.5 
15327 0 3 0.5 29.1 17.5 
18147 0 3 4.9 29.1 20.5 
19892 0 3 3.8 31.3 22.5 
20787 0 3 2.7 29.1 23.5 
22590 0 3 2.7 32.4 25.5 
25290 0 3 2.7 32.4 28.5 
26250 0 3 4.9 32.4 29.5 
1196 0 3 10.4 4.9 1.5 
4680 0 3 6 0.5 5.5 
7444 0 3 9.3 3.8 8.5 
7436 0 3 8.2 4.9 8.5 
8341 0 3 9.3 0.5 9.5 
8339 0 3 8.2 1.6 9.5 
10140 0 3 8.2 0.5 11.5 
10136 0 3 8.2 4.9 11.5 
10977 0 3 6 3.8 12.5 
13739 0 3 8.2 1.6 15.5 
16437 0 3 8.2 3.8 18.5 
16444 0 3 9.3 3.8 18.5 
18245 0 3 9.3 4.9 20.5 
19140 0 3 8.2 0.5 21.5 
19980 0 3 6 0.5 22.5 
19984 0 3 7.1 3.8 22.5 
20036 0 3 8.2 4.9 22.5 
20999 0 3 10.4 1.6 23.5 
20998 0 3 10.4 2.7 23.5 
21841 0 3 9.3 0.5 24.5 
22800 0 3 10.4 0.5 25.5 
22683 0 3 7.1 2.7 25.5 
25381 0 3 7.1 0.5 28.5 
25376 0 3 6 4.9 28.5 
26279 0 3 6 1.6 29.5 
26397 0 3 10.4 3.8 29.5 
294 0 3 10.4 7.1 0.5 
232 0 3 8.2 9.3 0.5 
1135 0 3 8.2 6 1.5 
1073 0 3 6 8.2 1.5 
3847 0 3 9.3 7.1 4.5 
3771 0 3 6 10.4 4.5 
4687 0 3 7.1 7.1 5.5 
6532 0 3 8.2 9.3 7.5 
8271 0 3 6 10.4 9.5 
10146 0 3 9.3 6 11.5 
11932 0 3 8.2 9.3 13.5 
11950 0 3 9.3 10.4 13.5 
12835 0 3 8.2 6 14.5 
12895 0 3 10.4 6 14.5 
13735 0 3 8.2 6 15.5 
13673 0 3 6 8.2 15.5 
13793 0 3 10.4 8.2 15.5 
15594 0 3 10.4 7.1 17.5 
19087 0 3 7.1 7.1 21.5 
19150 0 3 9.3 10.4 21.5 
19972 0 3 6 9.3 22.5 
19971 0 3 6 10.4 22.5 
20888 0 3 7.1 8.2 23.5 
22675 0 3 6 6 25.5 
23588 0 3 7.1 8.2 26.5 
23572 0 3 6 9.3 26.5 
24550 0 3 9.3 10.4 27.5 
26393 0 3 10.4 8.2 29.5 
227 0 3 8.2 14.8 0.5 
1130 0 3 8.2 11.5 1.5 
1992 0 3 7.1 12.6 2.5 
5567 0 3 6 14.8 6.5 
6494 0 3 7.1 14.8 7.5 
6587 0 3 10.4 14.8 7.5 
6495 0 3 7.1 15.9 7.5 
8353 0 3 9.3 13.7 9.5 
11029 0 3 8.2 12.6 12.5 
11929 0 3 8.2 12.6 13.5 
11953 0 3 9.3 13.7 13.5 
12829 0 3 8.2 12.6 14.5 
15590 0 3 10.4 11.5 17.5 
17292 0 3 7.1 12.6 19.5 
19152 0 3 9.3 12.6 21.5 
19188 0 3 10.4 13.7 21.5 
20951 0 3 9.3 11.5 23.5 
20953 0 3 9.3 13.7 23.5 
20954 0 3 9.3 14.8 23.5 
21889 0 3 10.4 12.6 24.5 
21795 0 3 7.1 15.9 24.5 
23594 0 3 7.1 14.8 26.5 
24530 0 3 8.2 11.5 27.5 
24528 0 3 8.2 13.7 27.5 
26389 0 3 10.4 12.6 29.5 
282 0 3 10.4 20.3 0.5 
2899 0 3 7.1 20.3 3.5 
5684 0 3 10.4 18.1 6.5 
5661 0 3 9.3 22.5 6.5 
5680 0 3 10.4 22.5 6.5 
6556 0 3 9.3 17 7.5 
7425 0 3 8.2 17 8.5 
8322 0 3 8.2 20.3 9.5 
10125 0 3 8.2 17 11.5 
10122 0 3 8.2 20.3 11.5 
11025 0 3 8.2 17 12.5 
11898 0 3 7.1 19.2 13.5 
12824 0 3 8.2 18.1 14.5 
19062 0 3 6 20.3 21.5 
19159 0 3 9.3 20.3 21.5 
20085 0 3 10.4 17 22.5 
20921 0 3 8.2 21.4 23.5 
20960 0 3 9.3 21.4 23.5 
21882 0 3 10.4 20.3 24.5 
23599 0 3 7.1 20.3 26.5 
24463 0 3 6 19.2 27.5 
24558 0 3 9.3 19.2 27.5 
26357 0 3 9.3 18.1 29.5 
26300 0 3 7.1 21.4 29.5 
1179 0 3 10.4 23.6 1.5 
2966 0 3 9.3 28 3.5 
4704 0 3 7.1 25.8 5.5 
6517 0 3 8.2 25.8 7.5 
6566 0 3 9.3 28 7.5 
7418 0 3 8.2 24.7 8.5 
7416 0 3 8.2 26.9 8.5 
7355 0 3 6 28 8.5 
8305 0 3 7.1 26.9 9.5 
8315 0 3 8.2 28 9.5 
10178 0 3 10.4 24.7 11.5 
15519 0 3 8.2 23.6 17.5 
18158 0 3 6 24.7 20.5 
19177 0 3 10.4 25.8 21.5 
20903 0 3 7.1 24.7 23.5 
20856 0 3 6 26.9 23.5 
23557 0 3 6 25.8 26.5 
23604 0 3 7.1 25.8 26.5 
23675 0 3 10.4 28 26.5 
25415 0 3 8.2 28 28.5 
26376 0 3 10.4 26.9 29.5 
270 0 3 9.3 32.4 0.5 
2008 0 3 7.1 30.2 2.5 
5668 0 3 9.3 30.2 6.5 
6453 0 3 6 30.2 7.5 
8371 0 3 10.4 32.4 9.5 
9213 0 3 8.2 30.2 10.5 
10114 0 3 8.2 29.1 11.5 
15572 0 3 10.4 31.3 17.5 
16353 0 3 6 30.2 18.5 
19168 0 3 9.3 30.2 21.5 
20072 0 3 10.4 31.3 22.5 
20971 0 3 10.4 32.4 23.5 
21807 0 3 7.1 29.1 24.5 
23613 0 3 8.2 30.2 26.5 
23671 0 3 10.4 32.4 26.5 
26372 0 3 10.4 31.3 29.5 
360 0 3 12.6 0.5 0.5 
1259 0 3 12.6 1.6 1.5 
1258 0 3 12.6 2.7 1.5 
3959 0 3 12.6 1.6 4.5 
3965 0 3 13.7 4.9 4.5 
4859 0 3 12.6 1.6 5.5 
5760 0 3 12.6 0.5 6.5 
7558 0 3 12.6 2.7 8.5 
8462 0 3 13.7 1.6 9.5 
8405 0 3 11.5 4.9 9.5 
9420 0 3 14.8 0.5 10.5 
9422 0 3 15.9 1.6 10.5 
17458 0 3 12.6 2.7 19.5 
17465 0 3 13.7 4.9 19.5 
17525 0 3 15.9 4.9 19.5 
20222 0 3 15.9 1.6 22.5 
20104 0 3 11.5 3.8 22.5 
20164 0 3 13.7 3.8 22.5 
22862 0 3 13.7 1.6 25.5 
23822 0 3 15.9 1.6 26.5 
24660 0 3 12.6 0.5 27.5 
25559 0 3 12.6 1.6 28.5 
26402 0 3 11.5 1.6 29.5 
26465 0 3 13.7 4.9 29.5 
3114 0 3 14.8 7.1 3.5 
3129 0 3 15.9 9.3 3.5 
5813 0 3 14.8 8.2 6.5 
5769 0 3 13.7 9.3 6.5 
5811 0 3 14.8 10.4 6.5 
6667 0 3 13.7 7.1 7.5 
7506 0 3 11.5 6 8.5 
7566 0 3 13.7 6 8.5 
8454 0 3 12.6 7.1 9.5 
8408 0 3 11.5 8.2 9.5 
12111 0 3 14.8 10.4 13.5 
13806 0 3 11.5 6 15.5 
18354 0 3 12.6 7.1 20.5 
21112 0 3 14.8 9.3 23.5 
22808 0 3 11.5 8.2 25.5 
22851 0 3 12.6 10.4 25.5 
25506 0 3 11.5 6 28.5 
25551 0 3 12.6 10.4 28.5 
373 0 3 13.7 13.7 0.5 
1215 0 3 11.5 15.9 1.5 
3012 0 3 11.5 12.6 3.5 
6647 0 3 12.6 14.8 7.5 
7631 0 3 15.9 11.5 8.5 
8447 0 3 12.6 14.8 9.5 
8415 0 3 11.5 15.9 9.5 
8535 0 3 15.9 15.9 9.5 
10333 0 3 15.9 13.7 11.5 
11171 0 3 13.7 11.5 12.5 
11233 0 3 15.9 13.7 12.5 
13008 0 3 14.8 13.7 14.5 
14712 0 3 11.5 12.6 16.5 
16635 0 3 15.9 15.9 18.5 
23746 0 3 12.6 15.9 26.5 
24615 0 3 11.5 15.9 27.5 
25549 0 3 12.6 12.6 28.5 
26473 0 3 13.7 13.7 29.5 
377 0 3 13.7 18.1 0.5 
403 0 3 14.8 19.2 0.5 
1244 0 3 12.6 18.1 1.5 
1220 0 3 11.5 21.4 1.5 
2202 0 3 14.8 20.3 2.5 
2240 0 3 15.9 21.4 2.5 
3076 0 3 13.7 17 3.5 
3042 0 3 12.6 20.3 3.5 
3920 0 3 11.5 21.4 4.5 
4820 0 3 11.5 21.4 5.5 
7545 0 3 12.6 17 8.5 
7581 0 3 13.7 22.5 8.5 
7641 0 3 15.9 22.5 8.5 
9318 0 3 11.5 19.2 10.5 
12081 0 3 13.7 22.5 13.5 
12940 0 3 12.6 22.5 14.5 
13876 0 3 13.7 17 15.5 
13817 0 3 11.5 18.1 15.5 
14716 0 3 11.5 17 16.5 
15703 0 3 14.8 19.2 17.5 
15680 0 3 13.7 21.4 17.5 
16517 0 3 11.5 18.1 18.5 
16641 0 3 15.9 22.5 18.5 
17480 0 3 13.7 21.4 19.5 
18319 0 3 11.5 20.3 20.5 
18379 0 3 13.7 20.3 20.5 
18381 0 3 13.7 22.5 20.5 
19218 0 3 11.5 19.2 21.5 
19339 0 3 15.9 20.3 21.5 
21101 0 3 14.8 21.4 23.5 
24642 0 3 12.6 20.3 27.5 
25579 0 3 13.7 20.3 28.5 
25602 0 3 14.8 20.3 28.5 
26445 0 3 12.6 17 29.5 
26441 0 3 12.6 21.4 29.5 
26440 0 3 12.6 22.5 29.5 
396 0 3 14.8 26.9 0.5 
3025 0 3 11.5 26.9 3.5 
3998 0 3 14.8 24.7 4.5 
3997 0 3 14.8 25.8 4.5 
3936 0 3 12.6 26.9 4.5 
5736 0 3 12.6 26.9 6.5 
7537 0 3 12.6 25.8 8.5 
7585 0 3 13.7 26.9 8.5 
7535 0 3 12.6 28 8.5 
8543 0 3 15.9 24.7 9.5 
12035 0 3 12.6 28 13.5 
12086 0 3 13.7 28 13.5 
13882 0 3 13.7 23.6 15.5 
16643 0 3 15.9 24.7 18.5 
16524 0 3 11.5 25.8 18.5 
17483 0 3 13.7 24.7 19.5 
17484 0 3 13.7 25.8 19.5 
17435 0 3 12.6 28 19.5 
18443 0 3 15.9 24.7 20.5 
20197 0 3 14.8 25.8 22.5 
20186 0 3 13.7 28 22.5 
21143 0 3 15.9 24.7 23.5 
21036 0 3 12.6 26.9 23.5 
23782 0 3 13.7 23.6 26.5 
23799 0 3 14.8 23.6 26.5 
1227 0 3 11.5 29.1 1.5 
2129 0 3 11.5 31.3 2.5 
2189 0 3 13.7 31.3 2.5 
4947 0 3 15.9 29.1 5.5 
4949 0 3 15.9 31.3 5.5 
5727 0 3 11.5 29.1 6.5 
5787 0 3 13.7 29.1 6.5 
5733 0 3 12.6 30.2 6.5 
5791 0 3 14.8 32.4 6.5 
7650 0 3 15.9 32.4 8.5 
8433 0 3 12.6 30.2 9.5 
9387 0 3 13.7 29.1 10.5 
9328 0 3 11.5 30.2 10.5 
9332 0 3 12.6 31.3 10.5 
12088 0 3 13.7 30.2 13.5 
13947 0 3 15.9 29.1 15.5 
14793 0 3 14.8 30.2 16.5 
14850 0 3 15.9 32.4 16.5 
17490 0 3 13.7 32.4 19.5 
19350 0 3 15.9 32.4 21.5 
20250 0 3 15.9 32.4 22.5 
21091 0 3 14.8 32.4 23.5 
22833 0 3 12.6 30.2 25.5 
22831 0 3 12.6 32.4 25.5 
23731 0 3 12.6 32.4 26.5 
598 0 3 21.4 2.7 0.5 
1503 0 3 22.5 2.7 1.5 
2400 0 3 21.4 0.5 2.5 
3297 0 3 21.4 3.8 3.5 
4081 0 3 18.1 0.5 4.5 
4079 0 3 17 1.6 4.5 
4085 0 3 18.1 4.9 4.5 
5043 0 3 20.3 2.7 5.5 
5944 0 3 20.3 3.8 6.5 
6897 0 3 21.4 3.8 7.5 
7799 0 3 21.4 1.6 8.5 
7738 0 3 19.2 2.7 8.5 
7745 0 3 20.3 4.9 8.5 
11344 0 3 20.3 3.8 12.5 
12236 0 3 19.2 4.9 13.5 
16679 0 3 17 1.6 18.5 
17583 0 3 18.1 2.7 19.5 
19501 0 3 22.5 0.5 21.5 
19384 0 3 18.1 3.8 21.5 
20402 0 3 22.5 1.6 22.5 
20398 0 3 21.4 2.7 22.5 
20396 0 3 21.4 4.9 22.5 
20405 0 3 22.5 4.9 22.5 
23039 0 3 19.2 1.6 25.5 
23098 0 3 21.4 2.7 25.5 
23996 0 3 21.4 4.9 26.5 
24780 0 3 17 0.5 27.5 
24838 0 3 19.2 2.7 27.5 
24905 0 3 22.5 4.9 27.5 
25796 0 3 21.4 4.9 28.5 
26580 0 3 17 0.5 29.5 
26582 0 3 18.1 1.6 29.5 
26577 0 3 17 3.8 29.5 
549 0 3 20.3 9.3 0.5 
1387 0 3 18.1 7.1 1.5 
2392 0 3 21.4 9.3 2.5 
3310 0 3 22.5 10.4 3.5 
5033 0 3 19.2 8.2 5.5 
5886 0 3 18.1 6 6.5 
5993 0 3 21.4 8.2 6.5 
5949 0 3 20.3 9.3 6.5 
6789 0 3 18.1 9.3 7.5 
8587 0 3 18.1 7.1 9.5 
8633 0 3 19.2 8.2 9.5 
10374 0 3 17 7.1 11.5 
10507 0 3 22.5 7.1 11.5 
10493 0 3 21.4 8.2 11.5 
10508 0 3 22.5 8.2 11.5 
11287 0 3 18.1 7.1 12.5 
12234 0 3 19.2 7.1 13.5 
12233 0 3 19.2 8.2 13.5 
12250 0 3 20.3 10.4 13.5 
13986 0 3 18.1 6 15.5 
14049 0 3 20.3 9.3 15.5 
15010 0 3 22.5 10.4 16.5 
15910 0 3 22.5 10.4 17.5 
17631 0 3 19.2 10.4 19.5 
18472 0 3 17 9.3 20.5 
18592 0 3 21.4 9.3 20.5 
18471 0 3 17 10.4 20.5 
19371 0 3 17 10.4 21.5 
20346 0 3 20.3 6 22.5 
21293 0 3 21.4 8.2 23.5 
21249 0 3 20.3 9.3 23.5 
22134 0 3 19.2 7.1 24.5 
22975 0 3 17 6 25.5 
23049 0 3 20.3 9.3 25.5 
23890 0 3 18.1 10.4 26.5 
24775 0 3 17 6 27.5 
24787 0 3 18.1 7.1 27.5 
24908 0 3 22.5 8.2 27.5 
24831 0 3 19.2 10.4 27.5 
24910 0 3 22.5 10.4 27.5 
25808 0 3 22.5 8.2 28.5 
25809 0 3 22.5 9.3 28.5 
26572 0 3 17 9.3 29.5 
555 0 3 20.3 15.9 0.5 
4992 0 3 18.1 12.6 5.5 
5930 0 3 19.2 11.5 6.5 
6792 0 3 18.1 12.6 7.5 
8711 0 3 22.5 11.5 9.5 
9612 0 3 22.5 12.6 10.5 
10429 0 3 19.2 12.6 11.5 
12255 0 3 20.3 15.9 13.5 
12286 0 3 21.4 15.9 13.5 
14952 0 3 20.3 12.6 16.5 
15014 0 3 22.5 14.8 16.5 
15912 0 3 22.5 12.6 17.5 
15915 0 3 22.5 15.9 17.5 
16811 0 3 22.5 11.5 18.5 
18493 0 3 18.1 13.7 20.5 
19511 0 3 22.5 11.5 21.5 
19394 0 3 18.1 14.8 21.5 
19395 0 3 18.1 15.9 21.5 
20411 0 3 22.5 11.5 22.5 
20269 0 3 17 12.6 22.5 
20327 0 3 19.2 14.8 22.5 
21229 0 3 19.2 12.6 23.5 
22130 0 3 19.2 11.5 24.5 
22991 0 3 18.1 11.5 25.5 
22995 0 3 18.1 15.9 25.5 
24011 0 3 22.5 11.5 26.5 
24888 0 3 21.4 13.7 27.5 
25755 0 3 20.3 15.9 28.5 
26594 0 3 18.1 14.8 29.5 
558 0 3 20.3 19.2 0.5 
499 0 3 18.1 20.3 0.5 
1399 0 3 18.1 20.3 1.5 
2381 0 3 21.4 21.4 2.5 
3223 0 3 19.2 19.2 3.5 
4216 0 3 22.5 17 4.5 
4180 0 3 21.4 22.5 4.5 
4221 0 3 22.5 22.5 4.5 
5025 0 3 19.2 17 5.5 
4999 0 3 18.1 20.3 5.5 
5119 0 3 22.5 20.3 5.5 
5925 0 3 19.2 17 6.5 
7725 0 3 19.2 17 8.5 
7699 0 3 18.1 20.3 8.5 
7821 0 3 22.5 22.5 8.5 
9584 0 3 21.4 18.1 10.5 
9620 0 3 22.5 21.4 10.5 
10425 0 3 19.2 17 11.5 
10517 0 3 22.5 18.1 11.5 
10518 0 3 22.5 19.2 11.5 
10422 0 3 19.2 20.3 11.5 
11359 0 3 20.3 20.3 12.5 
11360 0 3 20.3 21.4 12.5 
12220 0 3 19.2 22.5 13.5 
13217 0 3 22.5 18.1 14.5 
14083 0 3 21.4 19.2 15.5 
14021 0 3 19.2 21.4 15.5 
14081 0 3 21.4 21.4 15.5 
15920 0 3 22.5 21.4 17.5 
16724 0 3 19.2 18.1 18.5 
16699 0 3 18.1 20.3 18.5 
17597 0 3 18.1 18.1 19.5 
17620 0 3 19.2 22.5 19.5 
18556 0 3 20.3 17 20.5 
20357 0 3 20.3 18.1 22.5 
20384 0 3 21.4 18.1 22.5 
20321 0 3 19.2 21.4 22.5 
20361 0 3 20.3 22.5 22.5 
21197 0 3 18.1 18.1 23.5 
22124 0 3 19.2 18.1 24.5 
23984 0 3 21.4 18.1 26.5 
24763 0 3 17 19.2 27.5 
24821 0 3 19.2 21.4 27.5 
24760 0 3 17 22.5 27.5 
26598 0 3 18.1 19.2 29.5 
26622 0 3 19.2 20.3 29.5 
26659 0 3 20.3 20.3 29.5 
26720 0 3 22.5 21.4 29.5 
459 0 3 17 23.6 0.5 
502 0 3 18.1 23.6 0.5 
2379 0 3 21.4 23.6 2.5 
5005 0 3 18.1 26.9 5.5 
5902 0 3 18.1 23.6 6.5 
7702 0 3 18.1 23.6 8.5 
7719 0 3 19.2 23.6 8.5 
7764 0 3 20.3 25.8 8.5 
8663 0 3 20.3 24.7 9.5 
9624 0 3 22.5 25.8 10.5 
9625 0 3 22.5 26.9 10.5 
10478 0 3 21.4 24.7 11.5 
12322 0 3 22.5 23.6 13.5 
16702 0 3 18.1 23.6 18.5 
16779 0 3 21.4 23.6 18.5 
17603 0 3 18.1 24.7 19.5 
18459 0 3 17 23.6 20.5 
19524 0 3 22.5 25.8 21.5 
22117 0 3 19.2 25.8 24.5 
23122 0 3 22.5 23.6 25.5 
24879 0 3 21.4 23.6 27.5 
1467 0 3 20.3 29.1 1.5 
1469 0 3 20.3 31.3 1.5 
1530 0 3 22.5 32.4 1.5 
5914 0 3 19.2 29.1 6.5 
6810 0 3 18.1 32.4 7.5 
8667 0 3 20.3 29.1 9.5 
10474 0 3 21.4 29.1 11.5 
12207 0 3 18.1 29.1 13.5 
12212 0 3 19.2 31.3 13.5 
13168 0 3 20.3 30.2 14.5 
14968 0 3 20.3 30.2 16.5 
14852 0 3 17 31.3 16.5 
16707 0 3 18.1 29.1 18.5 
16774 0 3 21.4 29.1 18.5 
16710 0 3 18.1 32.4 18.5 
17611 0 3 19.2 32.4 19.5 
18568 0 3 20.3 30.2 20.5 
18628 0 3 22.5 30.2 20.5 
19407 0 3 18.1 29.1 21.5 
20372 0 3 21.4 31.3 22.5 
20251 0 3 17 32.4 22.5 
20371 0 3 21.4 32.4 22.5 
21214 0 3 19.2 29.1 23.5 
21152 0 3 17 31.3 23.5 
24874 0 3 21.4 29.1 27.5 
24870 0 3 20.3 32.4 27.5 
718 0 3 25.8 2.7 0.5 
723 0 3 26.9 2.7 0.5 
664 0 3 24.7 3.8 0.5 
4377 0 3 28 3.8 4.5 
6121 0 3 26.9 0.5 6.5 
7016 0 3 25.8 4.9 7.5 
8824 0 3 26.9 3.8 9.5 
8816 0 3 25.8 4.9 9.5 
9722 0 3 26.9 1.6 10.5 
11463 0 3 24.7 2.7 12.5 
12362 0 3 24.7 1.6 13.5 
13377 0 3 28 3.8 14.5 
14223 0 3 26.9 2.7 15.5 
15057 0 3 23.6 3.8 16.5 
16924 0 3 26.9 3.8 18.5 
17762 0 3 24.7 1.6 19.5 
18657 0 3 23.6 3.8 20.5 
20580 0 3 28 0.5 22.5 
20458 0 3 23.6 2.7 22.5 
24964 0 3 24.7 3.8 27.5 
26763 0 3 24.7 2.7 29.5 
26878 0 3 28 2.7 29.5 
26876 0 3 28 4.9 29.5 
4328 0 3 26.9 8.2 4.5 
5213 0 3 25.8 8.2 5.5 
8874 0 3 28 7.1 9.5 
10569 0 3 24.7 9.3 11.5 
10551 0 3 23.6 10.4 11.5 
12430 0 3 26.9 10.4 13.5 
13267 0 3 24.7 7.1 14.5 
13374 0 3 28 7.1 14.5 
13252 0 3 23.6 9.3 14.5 
13251 0 3 23.6 10.4 14.5 
14215 0 3 25.8 6 15.5 
15053 0 3 23.6 8.2 16.5 
15052 0 3 23.6 9.3 16.5 
16912 0 3 25.8 9.3 18.5 
19671 0 3 28 10.4 21.5 
20455 0 3 23.6 6 22.5 
21472 0 3 28 9.3 23.5 
22253 0 3 23.6 8.2 24.5 
23153 0 3 23.6 8.2 25.5 
23212 0 3 25.8 9.3 25.5 
24051 0 3 23.6 10.4 26.5 
25075 0 3 28 6 27.5 
732 0 3 26.9 12.6 0.5 
674 0 3 24.7 14.8 0.5 
1606 0 3 25.8 15.9 1.5 
3431 0 3 26.9 11.5 3.5 
3349 0 3 23.6 12.6 3.5 
3408 0 3 25.8 13.7 3.5 
6071 0 3 24.7 11.5 6.5 
9710 0 3 25.8 11.5 10.5 
9673 0 3 24.7 13.7 10.5 
9708 0 3 25.8 13.7 10.5 
11471 0 3 24.7 11.5 12.5 
11568 0 3 28 13.7 12.5 
11447 0 3 23.6 14.8 12.5 
12348 0 3 23.6 13.7 13.5 
12373 0 3 24.7 13.7 13.5 
12433 0 3 26.9 13.7 13.5 
14268 0 3 28 13.7 15.5 
16910 0 3 25.8 11.5 18.5 
17809 0 3 25.8 12.6 19.5 
17773 0 3 24.7 13.7 19.5 
22334 0 3 26.9 14.8 24.5 
24973 0 3 24.7 13.7 27.5 
24946 0 3 23.6 15.9 27.5 
26749 0 3 23.6 12.6 29.5 
644 0 3 23.6 18.1 0.5 
6140 0 3 26.9 21.4 6.5 
6160 0 3 28 22.5 6.5 
6942 0 3 23.6 20.3 7.5 
7039 0 3 26.9 20.3 7.5 
7963 0 3 28 19.2 8.5 
10600 0 3 25.8 22.5 11.5 
11480 0 3 24.7 21.4 12.5 
12436 0 3 26.9 17 13.5 
12441 0 3 26.9 22.5 13.5 
13300 0 3 25.8 22.5 14.5 
14260 0 3 28 22.5 15.5 
15105 0 3 25.8 17 16.5 
16064 0 3 28 18.1 17.5 
16844 0 3 23.6 18.1 18.5 
19543 0 3 23.6 19.2 21.5 
19541 0 3 23.6 21.4 21.5 
20504 0 3 25.8 18.1 22.5 
20481 0 3 24.7 22.5 22.5 
24105 0 3 25.8 17 26.5 
25004 0 3 25.8 18.1 27.5 
24981 0 3 24.7 22.5 27.5 
25041 0 3 26.9 22.5 27.5 
25901 0 3 25.8 21.4 28.5 
25960 0 3 28 22.5 28.5 
26839 0 3 26.9 20.3 29.5 
26741 0 3 23.6 21.4 29.5 
1585 0 3 24.7 26.9 1.5 
6085 0 3 24.7 26.9 6.5 
6935 0 3 23.6 28 7.5 
8842 0 3 26.9 23.6 9.5 
8797 0 3 25.8 25.8 9.5 
8736 0 3 23.6 26.9 9.5 
10644 0 3 26.9 25.8 11.5 
10595 0 3 25.8 28 11.5 
11543 0 3 26.9 24.7 12.5 
12335 0 3 23.6 28 13.5 
13237 0 3 23.6 25.8 14.5 
14183 0 3 24.7 24.7 15.5 
15098 0 3 25.8 24.7 16.5 
15998 0 3 25.8 24.7 17.5 
15997 0 3 25.8 25.8 17.5 
18636 0 3 23.6 26.9 20.5 
19657 0 3 28 25.8 21.5 
23186 0 3 24.7 28 25.5 
25058 0 3 28 24.7 27.5 
24985 0 3 24.7 26.9 27.5 
25942 0 3 26.9 23.6 28.5 
1589 0 3 24.7 31.3 1.5 
3393 0 3 25.8 30.2 3.5 
5188 0 3 24.7 30.2 5.5 
10588 0 3 24.7 30.2 11.5 
10590 0 3 24.7 32.4 11.5 
12387 0 3 24.7 29.1 13.5 
13294 0 3 25.8 29.1 14.5 
14133 0 3 23.6 30.2 15.5 
15091 0 3 25.8 32.4 16.5 
16953 0 3 28 30.2 18.5 
17790 0 3 24.7 32.4 19.5 
19589 0 3 24.7 31.3 21.5 
19590 0 3 24.7 32.4 21.5 
20492 0 3 25.8 31.3 22.5 
20490 0 3 24.7 32.4 22.5 
21390 0 3 24.7 32.4 23.5 
24088 0 3 24.7 30.2 26.5 
24991 0 3 25.8 32.4 27.5 
25947 0 3 26.9 29.1 28.5 
3598 0 3 32.4 2.7 3.5 
4500 0 3 32.4 0.5 4.5 
5282 0 3 29.1 1.6 5.5 
5399 0 3 32.4 1.6 5.5 
7139 0 3 30.2 1.6 7.5 
9896 0 3 32.4 4.9 10.5 
10798 0 3 32.4 2.7 11.5 
10797 0 3 32.4 3.8 11.5 
12483 0 3 29.1 2.7 13.5 
12538 0 3 30.2 2.7 13.5 
12537 0 3 30.2 3.8 13.5 
14337 0 3 30.2 3.8 15.5 
15182 0 3 29.1 1.6 16.5 
16137 0 3 30.2 3.8 17.5 
16197 0 3 32.4 3.8 17.5 
20699 0 3 32.4 1.6 22.5 
20643 0 3 31.3 2.7 22.5 
20698 0 3 32.4 2.7 22.5 
21485 0 3 29.1 4.9 23.5 
23341 0 3 31.3 0.5 25.5 
23398 0 3 32.4 2.7 25.5 
23397 0 3 32.4 3.8 25.5 
25085 0 3 29.1 4.9 27.5 
26100 0 3 32.4 0.5 28.5 
26937 0 3 30.2 3.8 29.5 
833 0 3 30.2 8.2 0.5 
3592 0 3 32.4 9.3 3.5 
5393 0 3 32.4 8.2 5.5 
7990 0 3 29.1 10.4 8.5 
9893 0 3 32.4 8.2 10.5 
9891 0 3 32.4 10.4 10.5 
10748 0 3 31.3 8.2 11.5 
11646 0 3 31.3 6 12.5 
11633 0 3 30.2 8.2 12.5 
13389 0 3 29.1 9.3 14.5 
16149 0 3 31.3 9.3 17.5 
16192 0 3 32.4 9.3 17.5 
16191 0 3 32.4 10.4 17.5 
20633 0 3 30.2 8.2 22.5 
20693 0 3 32.4 8.2 22.5 
22386 0 3 29.1 6 24.5 
23332 0 3 30.2 9.3 25.5 
25988 0 3 29.1 8.2 28.5 
25989 0 3 29.1 9.3 28.5 
1730 0 3 30.2 11.5 1.5 
2687 0 3 32.4 14.8 2.5 
10752 0 3 31.3 12.6 11.5 
12552 0 3 31.3 12.6 13.5 
12528 0 3 30.2 13.7 13.5 
14330 0 3 30.2 11.5 15.5 
14390 0 3 32.4 11.5 15.5 
15290 0 3 32.4 11.5 16.5 
16126 0 3 30.2 15.9 17.5 
16155 0 3 31.3 15.9 17.5 
17893 0 3 29.1 13.7 19.5 
17928 0 3 30.2 13.7 19.5 
17894 0 3 29.1 14.8 19.5 
19790 0 3 32.4 11.5 21.5 
20690 0 3 32.4 11.5 22.5 
20629 0 3 30.2 12.6 22.5 
21589 0 3 32.4 12.6 23.5 
22391 0 3 29.1 11.5 24.5 
22487 0 3 32.4 14.8 24.5 
23292 0 3 29.1 12.6 25.5 
23293 0 3 29.1 13.7 25.5 
24192 0 3 29.1 12.6 26.5 
24288 0 3 32.4 13.7 26.5 
26087 0 3 32.4 14.8 28.5 
26929 0 3 30.2 12.6 29.5 
26928 0 3 30.2 13.7 29.5 
858 0 3 31.3 19.2 0.5 
1756 0 3 31.3 17 1.5 
1757 0 3 31.3 18.1 1.5 
7122 0 3 30.2 20.3 7.5 
8001 0 3 29.1 22.5 8.5 
12557 0 3 31.3 18.1 13.5 
17056 0 3 31.3 17 18.5 
20622 0 3 30.2 20.3 22.5 
21585 0 3 32.4 17 23.5 
23325 0 3 30.2 17 25.5 
23324 0 3 30.2 18.1 25.5 
24284 0 3 32.4 18.1 26.5 
24258 0 3 31.3 19.2 26.5 
24260 0 3 31.3 21.4 26.5 
24281 0 3 32.4 21.4 26.5 
26084 0 3 32.4 18.1 28.5 
26080 0 3 32.4 22.5 28.5 
864 0 3 31.3 25.8 0.5 
2665 0 3 31.3 26.9 2.5 
2676 0 3 32.4 26.9 2.5 
4416 0 3 30.2 26.9 4.5 
9804 0 3 29.1 25.8 10.5 
13464 0 3 31.3 25.8 14.5 
14375 0 3 32.4 28 15.5 
17003 0 3 29.1 24.7 18.5 
17018 0 3 30.2 24.7 18.5 
17017 0 3 30.2 25.8 18.5 
17978 0 3 32.4 24.7 19.5 
19776 0 3 32.4 26.9 21.5 
20606 0 3 29.1 28 22.5 
20615 0 3 30.2 28 22.5 
22415 0 3 30.2 28 24.5 
23316 0 3 30.2 26.9 25.5 
26978 0 3 32.4 24.7 29.5 
2672 0 3 32.4 31.3 2.5 
3569 0 3 31.3 31.3 3.5 
8013 0 3 30.2 30.2 8.5 
8969 0 3 31.3 31.3 9.5 
9811 0 3 30.2 32.4 10.5 
13472 0 3 32.4 31.3 14.5 
14374 0 3 32.4 29.1 15.5 
16172 0 3 32.4 31.3 17.5 
19708 0 3 29.1 30.2 21.5 
19768 0 3 31.3 30.2 21.5 
20614 0 3 30.2 29.1 22.5 
21508 0 3 29.1 30.2 23.5 
26970 0 3 31.3 32.4 29.5 
ITEM: TIMESTEP
100000
ITEM: NUMBER OF ATOMS
900
ITEM: BOX BOUNDS pp pp pp
0.0000000000000000e+00 3.4000000000000000e+01
0.0000000000000000e+00 3.4000000000000000e+01
0.0000000000000000e+00 3.4000000000000000e+01
ITEM: ATOMS id mol type x y z 
2849 0 3 3.17049 0.872242 2.19305 
25290 0 3 0.962189 5.04744 2.88535 
11768 0 3 0.881491 2.40437 4.72172 
6390 0 3 2.14899 4.82752 4.85831 
10926 0 3 1.02253 0.988886 6.50109 
9896 0 3 5.20755 3.93176 5.70609 
12483 0 3 4.68297 0.874613 11.5584 
7139 0 3 0.81005 1.49499 12.844 
20699 0 3 1.77219 4.03155 16.2699 
19024 0 3 3.26004 1.83566 19.3592 
20787 0 3 3.35018 0.83028 21.7433 
20072 0 3 2.45283 1.45144 23.513 
16328 0 3 5.06236 3.40135 22.9508 
25506 0 3 3.10292 1.6313 25.3656 
18967 0 3 4.3891 3.2165 24.9212 
21665 0 3 2.68018 3.834 26.0249 
127 0 3 5.65573 4.04756 31.1258 
26222 0 3 0.750243 0.39745 33.5527 
25207 0 3 0.775062 5.47232 33.4046 
25334 0 3 5.52266 9.28813 0.353326 
1073 0 3 3.45511 7.58918 2.23572 
8824 0 3 2.50192 9.1172 5.17337 
16191 0 3 1.85531 6.39833 12.6689 
10912 0 3 4.23477 6.06714 12.9361 
10011 0 3 2.41014 9.39209 12.9628 
10931 0 3 5.64436 8.20951 13.444 
15290 0 3 3.06408 10.1016 13.7113 
17928 0 3 0.881884 9.33912 15.1059 
12835 0 3 5.18315 6.20158 17.6375 
16155 0 3 0.0159042 9.69905 17.0292 
15432 0 3 4.06263 7.65883 19.1744 
18056 0 3 1.91732 8.07646 20.1725 
19972 0 3 5.44881 7.74606 22.2717 
20693 0 3 4.63471 7.87736 24.383 
19790 0 3 3.91653 8.64151 24.2691 
23397 0 3 0.0575329 5.73161 24.65 
26114 0 3 1.03304 6.14955 24.9045 
1933 0 3 0.616771 7.27353 24.8349 
17233 0 3 4.26593 9.4069 24.9334 
23572 0 3 4.60859 9.66913 25.9926 
23469 0 3 2.03564 9.78678 26.4957 
23588 0 3 4.90903 8.08162 28.118 
23293 0 3 1.9247 7.71776 29.8947 
23594 0 3 4.72907 11.189 30.9383 
2687 0 3 0.613455 9.50688 31.3407 
3605 0 3 0.966525 6.23457 32.4492 
23332 0 3 1.70105 7.39145 32.4563 
25381 0 3 2.88526 6.9475 32.8144 
6409 0 3 5.58184 14.0437 3.07933 
5452 0 3 1.25058 15.1775 6.09139 
8207 0 3 2.51279 15.909 7.68253 
9072 0 3 3.53842 13.1597 10.0582 
13516 0 3 3.91198 12.3229 15.4716 
16192 0 3 2.22247 11.4188 17.789 
18948 0 3 1.28582 13.0409 18.6367 
19874 0 3 1.97884 11.6847 21.8188 
20706 0 3 2.85531 12.5075 22.2485 
25333 0 3 1.56556 14.865 22.759 
20781 0 3 3.09882 16.6325 23.4314 
227 0 3 5.45742 15.6176 23.9151 
24258 0 3 1.16284 14.7247 25.1715 
21589 0 3 2.03679 15.0619 25.9193 
858 0 3 2.89919 12.1925 28.2318 
20690 0 3 3.40635 16.4772 28.0973 
20633 0 3 3.90589 14.2345 28.7935 
23446 0 3 1.24168 16.4416 29.0572 
1730 0 3 4.02171 16.9057 29.1977 
26087 0 3 4.25857 16.2359 30.3121 
25307 0 3 3.7949 12.3648 33.2386 
24434 0 3 5.63003 14.4521 33.2763 
26300 0 3 3.84189 19.9955 1.43177 
2778 0 3 3.19084 18.7515 3.2676 
6587 0 3 2.80978 20.5038 3.03681 
9943 0 3 3.70351 19.3473 10.6952 
12528 0 3 1.72663 19.243 11.573 
10125 0 3 5.03593 17.4089 13.1143 
14375 0 3 1.57108 20.3227 20.5223 
14260 0 3 1.40073 20.9361 21.4317 
24288 0 3 1.01343 17.7179 22.4824 
26357 0 3 1.31714 19.3225 29.4866 
26080 0 3 1.51091 24.3803 2.06975 
1937 0 3 3.6698 26.7656 2.48992 
3613 0 3 2.02563 23.226 3.05526 
4644 0 3 3.91992 26.734 5.44571 
9025 0 3 2.39217 27.1417 8.18246 
7299 0 3 3.05627 23.0135 10.291 
8120 0 3 3.853 25.3304 10.2034 
7243 0 3 2.55178 23.998 10.6423 
12685 0 3 1.7907 25.1652 10.9428 
11837 0 3 4.88124 22.7196 15.9001 
10898 0 3 3.76458 25.72 16.4224 
12684 0 3 1.48223 25.4215 17.3735 
13600 0 3 0.982178 26.5124 17.8514 
13464 0 3 1.84298 23.9705 20.6017 
19001 0 3 5.01009 22.8268 22.8933 
18020 0 3 4.75074 23.9343 23.5314 
864 0 3 4.2112 26.2254 26.9082 
21585 0 3 4.16647 24.1222 29.7227 
4500 0 3 0.194286 26.5415 32.2495 
2665 0 3 0.114038 23.4505 33.1626 
4582 0 3 1.03557 29.4053 1.52189 
6378 0 3 0.972358 29.916 2.7665 
7122 0 3 2.55963 29.3594 8.04523 
4620 0 3 1.70896 33.0158 7.86673 
10881 0 3 5.24894 31.7421 8.89626 
6391 0 3 2.88139 32.8117 11.0587 
16353 0 3 3.97309 29.468 13.4618 
10140 0 3 4.96421 33.4809 15.5789 
16172 0 3 0.0298703 30.4136 17.3152 
12538 0 3 0.325611 29.6363 18.1579 
18158 0 3 1.40753 29.3481 18.7357 
19892 0 3 1.38707 33.4616 19.2183 
13650 0 3 2.53707 33.4154 19.6981 
23799 0 3 4.10327 31.8562 22.6007 
19708 0 3 3.5723 32.0101 24.1941 
20698 0 3 1.65101 32.2145 23.9847 
22520 0 3 0.088445 29.2239 24.9922 
26279 0 3 2.93955 32.8959 25.1097 
26876 0 3 1.05175 33.3534 25.9664 
23557 0 3 2.87671 33.9506 27.2395 
18998 0 3 1.18142 30.4519 27.9076 
22800 0 3 2.90354 32.6204 29.3158 
5399 0 3 1.8035 29.2687 30.2738 
6453 0 3 2.9082 33.1751 33.1524 
3712 0 3 10.3723 2.53672 1.30473 
1992 0 3 8.37067 3.84969 1.30024 
26970 0 3 11.1286 1.02847 2.44212 
26250 0 3 10.5509 1.93789 4.3148 
6395 0 3 6.40524 2.03235 5.63179 
7535 0 3 10.5024 2.47625 5.37219 
8339 0 3 7.63801 0.175123 6.67452 
4680 0 3 7.06625 3.79998 7.04067 
5727 0 3 10.4686 1.00352 8.25188 
9937 0 3 11.0873 2.02492 7.71829 
10924 0 3 9.05961 3.76904 11.0375 
8454 0 3 10.2877 2.75166 12.3415 
10114 0 3 9.36812 0.948913 13.8643 
8341 0 3 10.9491 2.80561 13.5921 
16444 0 3 5.78358 0.638343 16.584 
10798 0 3 6.87976 0.252792 16.9788 
16197 0 3 6.83211 3.52066 17.6399 
10374 0 3 10.1145 4.42749 17.3534 
19150 0 3 7.01449 5.37348 18.4398 
19984 0 3 9.6998 1.88968 20.0988 
25345 0 3 7.19664 0.155264 21.6071 
20104 0 3 7.03695 3.71748 21.7782 
19980 0 3 10.3005 4.25962 22.2681 
18245 0 3 9.67244 1.98586 23.436 
19087 0 3 10.227 4.93003 23.3166 
19022 0 3 10.6418 2.62517 23.7582 
22683 0 3 7.14324 4.5285 24.2324 
23675 0 3 9.36789 1.76611 26.6954 
21889 0 3 8.6219 3.42472 27.6743 
20036 0 3 9.29435 0.377743 31.934 
3012 0 3 7.66273 7.45387 2.43397 
4568 0 3 6.56716 9.23073 4.37584 
4687 0 3 6.67889 10.5257 4.05987 
3114 0 3 8.28717 9.30358 4.90815 
7566 0 3 10.5607 9.27528 7.4153 
8408 0 3 7.0503 7.396 7.97534 
5733 0 3 8.06645 5.8289 8.77146 
11950 0 3 6.90068 10.4825 11.384 
10977 0 3 10.2344 7.52577 13.2315 
13793 0 3 10.7831 6.04117 14.6592 
11953 0 3 10.9164 8.58492 17.5173 
13817 0 3 11.1742 9.69467 18.141 
12895 0 3 9.54845 8.58185 19.5907 
24530 0 3 9.59998 7.18019 21.9663 
13673 0 3 7.18538 9.74062 22.7953 
17292 0 3 9.14559 8.16135 23.8399 
20951 0 3 10.9213 10.9548 24.5368 
21654 0 3 6.3168 6.26914 27.2431 
373 0 3 9.54998 9.87211 27.3666 
1809 0 3 10.5198 10.6581 27.3423 
24550 0 3 8.48365 11.2102 29.0164 
107 0 3 6.30597 8.26624 29.6585 
24430 0 3 7.41128 8.39775 29.4117 
1135 0 3 7.14195 8.41484 30.4946 
18109 0 3 7.78823 7.48688 32.3875 
3076 0 3 6.78178 12.764 0.0913551 
3738 0 3 8.83057 16.9428 2.92468 
8353 0 3 8.05017 14.7753 3.81227 
3676 0 3 7.73273 16.0746 4.6532 
6495 0 3 10.8507 13.9741 4.84406 
10146 0 3 10.5025 15.0444 6.48169 
8172 0 3 7.57834 16.4606 5.87005 
7631 0 3 10.723 14.0896 7.16354 
5769 0 3 8.68173 14.2917 7.84651 
11029 0 3 9.89265 14.9608 7.61595 
11929 0 3 8.03446 11.805 12.4393 
11932 0 3 5.87357 13.716 16.155 
15440 0 3 7.79239 16.3581 16.7004 
15594 0 3 10.1152 14.5158 18.6727 
11898 0 3 9.83491 15.7364 18.2065 
15590 0 3 9.01582 11.8329 19.2347 
19971 0 3 6.49225 13.4786 20.2772 
21795 0 3 10.9714 16.472 22.902 
18054 0 3 8.17769 12.2123 25.495 
20921 0 3 6.34116 13.2622 24.5651 
21882 0 3 6.69721 15.7722 25.5082 
23599 0 3 7.20181 15.4987 27 
26928 0 3 5.98272 11.8754 27.982 
26389 0 3 9.20821 11.3772 30.0558 
26234 0 3 10.9074 16.123 30.1573 
111 0 3 6.63098 12.7089 30.41 
232 0 3 8.29676 13.3431 31.1119 
20953 0 3 10.3397 13.0086 31.1749 
25329 0 3 10.3229 14.2574 31.228 
1130 0 3 8.96701 15.2774 31.9821 
1215 0 3 9.29588 16.4226 31.7599 
97 0 3 9.61289 18.0697 1.51366 
6494 0 3 9.13776 18.9586 1.47174 
5684 0 3 8.03638 18.8048 2.03494 
3705 0 3 11.1886 17.3647 3.07192 
4604 0 3 7.14577 18.9928 4.08929 
2899 0 3 7.44156 21.1676 4.22987 
5661 0 3 7.93403 18.7407 5.11767 
7581 0 3 10.004 20.0424 4.7494 
7725 0 3 11.052 20.313 5.05821 
5680 0 3 10.5758 20.2041 6.9258 