ITEM: TIMESTEP
7000000
ITEM: NUMBER OF ATOMS
900
ITEM: BOX BOUNDS pp pp pp
5.9153331474142945e-01 3.3408466685257878e+01
5.9153331474142945e-01 3.3408466685257878e+01
5.9153331474142945e-01 3.3408466685257878e+01
ITEM: ATOMS id mol type x y z 
2240 0 3 4.99662 1.00771 1.90156 
21229 0 3 5.66498 2.42972 2.31171 
24946 0 3 2.90216 4.45777 1.51358 
23613 0 3 2.42426 3.03481 2.61502 
3712 0 3 4.92994 2.49513 5.81407 
17583 0 3 1.26645 3.23567 6.10122 
14423 0 3 2.03814 4.78598 10.6357 
6395 0 3 0.77402 1.75292 12.5801 
21665 0 3 3.27155 1.94294 12.4608 
6566 0 3 3.58426 3.50682 12.2661 
25333 0 3 5.19963 4.33097 12.8078 
13986 0 3 1.30111 4.633 13.7681 
5431 0 3 3.22702 0.685699 15.4465 
8663 0 3 3.92342 3.50502 15.3003 
9422 0 3 4.58722 3.65895 16.4916 
15920 0 3 0.693582 3.96153 18.0808 
15290 0 3 2.29665 5.1726 17.332 
1244 0 3 5.57708 5.07658 17.3597 
97 0 3 3.92595 1.9128 20.2357 
17893 0 3 2.6495 2.98964 20.2514 
20411 0 3 1.91526 5.43208 19.6068 
10178 0 3 1.40547 5.26443 20.4888 
10569 0 3 3.48777 1.36163 23.6077 
2736 0 3 5.99152 2.08629 26.8897 
20490 0 3 5.82037 1.01097 31.3562 
9213 0 3 4.01511 4.93252 30.5151 
24105 0 3 5.68222 8.03647 1.67016 
25290 0 3 0.978007 11.4381 2.59269 
18054 0 3 3.82053 8.20272 4.64709 
16197 0 3 2.39603 10.5237 4.5083 
25549 0 3 3.13934 10.0467 5.8852 
22808 0 3 1.19706 6.50405 7.63309 
17809 0 3 2.54354 8.24561 7.13311 
13650 0 3 3.4989 6.2216 8.55385 
3959 0 3 4.54784 8.59327 7.99927 
23325 0 3 3.93623 9.96254 8.52414 
9328 0 3 0.904109 6.25077 10.4835 
21722 0 3 3.48757 7.34158 9.76432 
4568 0 3 3.13408 10.442 12.5891 
5811 0 3 0.861117 9.34526 16.9019 
19218 0 3 3.9793 8.83349 16.9572 
12220 0 3 2.67218 10.7455 16.1162 
19159 0 3 1.22774 8.35428 17.2713 
19177 0 3 1.74596 8.15844 19.1162 
24660 0 3 1.66761 10.6154 20.402 
9625 0 3 1.32067 8.98674 21.5697 
6390 0 3 4.52498 9.50007 24.0896 
19168 0 3 5.38872 8.13785 22.8469 
5393 0 3 3.99455 7.77466 25.6294 
20954 0 3 1.78508 7.54673 26.4863 
22800 0 3 3.2273 6.65123 29.3749 
15680 0 3 1.35492 8.89725 28.871 
10898 0 3 3.94762 9.15239 28.0813 
20580 0 3 2.05924 8.39777 31.4823 
26300 0 3 1.11705 10.9371 29.9579 
20971 0 3 5.81847 10.7032 30.6436 
19087 0 3 4.0648 7.41494 31.9644 
22117 0 3 3.03464 8.84462 32.1336 
26749 0 3 1.2764 11.5987 1.66975 
21882 0 3 4.16008 16.7227 1.80445 
17483 0 3 3.98581 14.2014 3.60355 
16811 0 3 2.8682 16.1262 2.47154 
1220 0 3 3.9424 15.3433 5.7359 
20371 0 3 3.86228 16.2458 6.62961 
13217 0 3 4.74085 12.4162 9.84437 
9584 0 3 4.71533 13.8629 12.3225 
10752 0 3 5.23168 15.5585 12.5418 
10493 0 3 1.5441 13.6378 15.2409 
12430 0 3 2.75509 15.2238 15.5309 
10644 0 3 5.44415 16.6447 15.5303 
12436 0 3 4.38358 13.1669 19.3758 
15053 0 3 3.05884 14.4854 20.5826 
26372 0 3 5.16236 15.5955 19.1693 
23405 0 3 1.48677 12.0753 21.8304 
908 0 3 3.35211 14.9347 22.2017 
13516 0 3 5.47797 12.4151 22.8933 
20622 0 3 5.41304 16.914 23.6338 
20036 0 3 1.34146 12.8335 25.7217 
7436 0 3 4.56457 15.9264 25.5752 
3705 0 3 4.35698 12.3523 28.7907 
26357 0 3 3.0103 15.1635 29.5856 
24985 0 3 6.03569 15.1475 30.9351 
20372 0 3 5.04138 15.5371 29.9349 
5213 0 3 0.835839 12.5279 31.6849 
15321 0 3 2.0008 16.8917 33.2092 
9943 0 3 2.68136 16.5178 32.3809 
5119 0 3 4.03141 21.0332 1.44377 
26577 0 3 1.94326 19.8278 3.32575 
7235 0 3 1.89976 21.7268 2.42152 
1503 0 3 3.57168 21.0353 2.67116 
18592 0 3 1.27282 18.4071 8.41686 
16192 0 3 4.31596 17.8998 10.5294 
5282 0 3 3.20742 19.3703 13.0169 
12829 0 3 1.59234 22.0577 11.5595 
21508 0 3 1.42877 19.5957 14.9039 
14260 0 3 3.63361 20.2535 13.6602 
11842 0 3 0.863825 17.4794 16.4053 
19407 0 3 2.9413 17.9859 16.4531 
20633 0 3 3.16573 21.1049 17.4162 
18636 0 3 4.31333 17.1876 20.2119 
35 0 3 0.85326 18.2209 21.6464 
3431 0 3 1.23211 21.0892 21.0979 
9891 0 3 3.05363 21.202 21.1848 
17480 0 3 1.54446 17.3467 22.8146 
17056 0 3 2.17358 19.3674 23.0995 
6384 0 3 1.88872 20.4761 22.9302 
21585 0 3 4.158 21.0658 24.1303 
14716 0 3 0.934137 20.9033 24.6596 
8535 0 3 5.71897 17.7129 27.5177 
19511 0 3 0.633407 27.3584 6.23359 
8172 0 3 5.08851 25.3272 11.5214 
14968 0 3 2.26216 25.7665 11.749 
12373 0 3 1.81386 22.8263 14.2527 
23122 0 3 3.43126 24.0606 16.5045 
6071 0 3 1.36944 27.6358 18.7348 
14330 0 3 5.35956 23.4933 19.9739 
864 0 3 5.08521 24.5568 20.2869 
22487 0 3 5.26399 24.5286 21.7935 
19371 0 3 5.89633 22.6911 24.6632 
26580 0 3 1.68711 26.8741 24.3946 
21889 0 3 5.04063 26.5801 24.6 
3408 0 3 4.60849 27.1593 27.398 
22124 0 3 1.06321 26.7993 29.6566 
6409 0 3 4.04817 24.7175 31.0299 
11646 0 3 2.15125 27.5169 32.4071 
18493 0 3 3.74905 28.9246 9.36964 
9946 0 3 5.60842 29.7322 9.46303 
3223 0 3 2.66437 29.9498 9.59738 
20693 0 3 0.599933 32.4894 8.15866 
4859 0 3 1.97479 32.5389 8.68909 
20481 0 3 4.62669 31.281 11.2771 
16679 0 3 5.10253 28.3939 11.7505 
24964 0 3 1.97169 30.7732 11.7551 
5404 0 3 2.8183 29.0767 16.7939 
24760 0 3 4.39754 29.9677 15.8091 
107 0 3 2.06889 32.4095 18.6833 
7702 0 3 5.26999 31.538 19.6014 
14223 0 3 2.53723 32.1053 20.9434 
20827 0 3 4.85763 29.2127 24.7109 
12111 0 3 1.90888 32.2891 28.6301 
10551 0 3 5.90417 32.9596 28.8132 
2392 0 3 5.96138 28.1593 31.1866 
5680 0 3 3.65107 30.9494 30.1835 
7444 0 3 5.34509 33.1354 30.7921 
26402 0 3 6.16535 3.99601 1.40783 
2381 0 3 7.45405 3.90827 3.28123 
3129 0 3 7.08161 3.2817 4.11849 
14268 0 3 6.78716 1.15199 5.10171 
19395 0 3 7.86772 2.45354 4.59721 
12441 0 3 10.7468 4.84998 4.44813 
3671 0 3 9.9534 4.52377 5.16437 
26445 0 3 10.9163 5.97623 4.44934 
16710 0 3 9.56518 1.87162 6.91344 
23402 0 3 6.59359 3.85807 7.71791 
6378 0 3 11.0302 2.86767 7.22815 
24615 0 3 11.4735 5.29749 6.69309 
7355 0 3 8.00711 6.03011 9.29646 
26876 0 3 9.28683 2.25303 10.6117 
21152 0 3 8.12913 4.08111 10.2272 
20698 0 3 8.39084 2.93126 11.9119 
25415 0 3 7.00505 0.744584 14.1011 
7799 0 3 10.362 3.36208 13.4566 
8222 0 3 9.9066 2.48032 14.4101 
7535 0 3 9.93487 5.4259 13.806 
7745 0 3 10.7282 1.15551 15.4793 
23572 0 3 9.19334 4.30557 17.1546 
1399 0 3 7.10178 5.09079 22.5589 
23153 0 3 7.12361 1.80043 25.7275 
17978 0 3 10.8227 3.6628 26.4882 
2778 0 3 10.6486 5.12813 26.1307 
13582 0 3 10.7223 5.59357 27.3005 
20606 0 3 10.9753 4.0995 28.6424 
19501 0 3 6.95841 2.10141 30.3008 
25307 0 3 7.61692 2.98442 30.0908 
2008 0 3 6.23272 2.77171 32.8706 
13464 0 3 6.86588 7.16482 3.82048 
17894 0 3 9.57042 7.40322 3.55981 
10140 0 3 8.48263 6.81282 3.57333 
18020 0 3 8.83379 8.5241 3.40631 
8341 0 3 11.3684 6.93116 4.43734 
20455 0 3 11.2641 9.45479 6.39365 
12286 0 3 9.14272 10.0327 7.77298 
2189 0 3 9.05771 9.94563 6.11817 
7719 0 3 9.0751 8.54031 9.26319 
23324 0 3 11.1778 8.69041 7.90712 
10425 0 3 9.00705 8.7697 13.1531 
25329 0 3 7.46582 7.15762 13.6765 
24260 0 3 6.23738 8.15026 16.1012 
25579 0 3 8.50634 7.92957 15.8252 
10803 0 3 10.0191 6.4406 17.4295 
8816 0 3 10.4731 8.43342 18.2032 
19524 0 3 8.32529 10.4598 17.593 
19022 0 3 7.17058 9.41006 19.9436 
24874 0 3 6.25894 9.60601 20.9574 
26440 0 3 9.64344 8.57591 22.1118 
8587 0 3 8.42221 8.57008 22.4536 
10478 0 3 9.079 10.4017 21.911 
1589 0 3 11.0934 10.2673 23.5876 
11287 0 3 8.93943 8.27135 25.6801 
11950 0 3 6.81927 6.80822 26.2849 
10588 0 3 6.86782 10.4106 27.1239 
25058 0 3 6.33859 9.96305 28.7858 
10912 0 3 7.99996 10.274 28.4559 
16191 0 3 11.5281 11.4962 32.0724 
20998 0 3 8.29729 13.6392 1.72099 
377 0 3 8.04917 12.9957 3.92875 
20787 0 3 8.86548 14.6095 3.04888 
19590 0 3 9.25776 11.9491 5.72063 
5886 0 3 9.11155 14.384 4.39225 
11447 0 3 11.3882 15.9511 7.15573 
20492 0 3 9.70785 16.7351 6.1254 
14375 0 3 9.38283 15.2177 8.04384 
7699 0 3 10.0604 16.3862 8.89672 
360 0 3 7.22037 16.505 10.1521 
13600 0 3 8.44738 11.6089 13.2302 
23604 0 3 10.2158 15.387 13.3138 
19768 0 3 7.56302 14.0423 15.1877 
22644 0 3 10.7949 14.2989 15.8952 
26393 0 3 11.2822 15.3687 15.2282 
23446 0 3 6.42626 16.8881 18.7123 
4079 0 3 8.20277 12.1042 19.3579 
15594 0 3 8.67541 15.5446 19.6386 
3025 0 3 7.25913 13.0713 22.2044 
14712 0 3 6.07872 12.8904 24.1225 
7581 0 3 10.7914 14.1351 25.1653 
11463 0 3 10.4501 12.7374 27.3143 
5033 0 3 9.336 16.2141 26.4617 
19892 0 3 10.2523 14.2055 28.3758 
23746 0 3 8.77535 16.242 31.3118 
24780 0 3 7.04312 15.7255 33.0894 
15915 0 3 6.68213 17.582 9.10886 
4820 0 3 6.16224 20.5245 8.69956 
20072 0 3 7.67222 17.5363 11.7814 
2687 0 3 8.77383 18.339 11.6857 
20690 0 3 7.38744 17.9878 15.1562 
6935 0 3 7.59036 21.6599 14.4132 
11837 0 3 8.74909 22.1448 16.6474 
14852 0 3 6.90903 20.1238 18.1881 
5760 0 3 7.61382 21.9857 17.9387 
11633 0 3 6.53285 22.1763 19.5798 
17233 0 3 7.50076 20.7219 21.5715 
8969 0 3 7.75469 17.9915 24.604 
21214 0 3 8.84163 18.0375 27.7742 
21112 0 3 9.77307 20.4085 26.9021 
15052 0 3 10.6872 19.5707 29.6894 
16641 0 3 6.90193 17.4605 32.315 
9927 0 3 10.8612 18.6491 31.9598 
8711 0 3 9.4471 19.4472 31.9729 
7537 0 3 9.6867 20.247 32.9311 
15997 0 3 6.28805 24.7093 2.00905 
11764 0 3 8.77954 26.7567 1.70398 
10333 0 3 10.1817 23.5408 3.64213 
25988 0 3 9.56097 26.9525 3.2309 
19984 0 3 11.1369 23.5506 5.29053 
13300 0 3 9.55076 22.8201 8.1743 
8120 0 3 11.4965 23.638 10.1733 
13947 0 3 8.34615 24.384 11.0266 
22134 0 3 11.3612 25.2832 11.3426 
23782 0 3 11.0464 25.4093 10.0515 
1135 0 3 10.4105 26.2965 9.88741 
16328 0 3 7.3671 23.9329 12.3489 
17790 0 3 9.44183 22.9105 13.65 
16155 0 3 7.6478 23.1046 15.7671 
16137 0 3 6.97131 25.8903 16.0167 
16910 0 3 10.0447 24.9499 15.2264 
5567 0 3 6.52689 27.548 15.6285 
22851 0 3 7.78884 27.8854 19.9174 
674 0 3 6.18843 22.8262 21.4194 
24642 0 3 8.20411 24.7463 22.0816 
12335 0 3 9.94608 25.7915 22.0219 
19980 0 3 10.6944 23.1988 22.8739 
8371 0 3 7.65179 27.2813 25.1271 
13735 0 3 9.21872 26.054 27.8619 
2202 0 3 8.94328 26.3867 28.7388 
3608 0 3 8.73257 24.7331 30.1955 
8013 0 3 9.74575 24.3533 30.8851 
25041 0 3 9.25782 23.675 32.4283 
14793 0 3 9.97261 27.0822 32.8903 
23316 0 3 8.88221 28.098 1.13604 
18058 0 3 7.54087 29.0957 4.81189 
3676 0 3 8.69836 30.4916 5.12521 
1820 0 3 8.91184 28.2044 8.28431 
5445 0 3 6.55731 28.4024 10.4674 
17620 0 3 10.7543 28.7237 10.3129 
19874 0 3 10.6043 32.8244 11.1977 
4081 0 3 9.85734 32.0557 11.181 
499 0 3 6.8081 29.5801 13.2801 
13673 0 3 7.17049 30.1951 15.0617 
10748 0 3 6.16401 30.7611 14.3105 
18568 0 3 11.3801 30.3661 13.5198 
3965 0 3 10.9396 31.0003 14.472 
2400 0 3 7.83715 31.069 16.7525 
4947 0 3 6.21357 29.9206 15.648 
17017 0 3 9.19161 29.0639 18.393 
23332 0 3 7.30108 32.9333 17.1241 
12538 0 3 10.3154 32.5693 18.1676 
8339 0 3 7.2071 31.5201 20.1324 
10518 0 3 6.60845 30.8691 21.4891 
24288 0 3 9.44793 33.1726 22.4778 
19708 0 3 10.0564 31.735 24.1446 
11171 0 3 11.3489 28.6909 26.8262 
17201 0 3 10.0776 28.5739 26.3208 
13252 0 3 7.43571 32.423 30.9758 
1933 0 3 7.56044 32.961 30.1175 
373 0 3 9.86832 28.8651 32.1371 
20398 0 3 14.6056 0.922936 3.73154 
7566 0 3 12.9957 1.12445 6.04967 
25808 0 3 13.2043 6.00388 7.87038 
23186 0 3 13.0876 2.71849 8.76262 
24831 0 3 12.0577 1.03202 11.0226 
6810 0 3 11.7878 2.06578 14.4417 
5914 0 3 13.9468 4.941 14.6939 
25809 0 3 13.3406 0.674087 16.9306 
19350 0 3 12.2076 1.75723 15.7245 
26473 0 3 15.0578 2.92225 16.8353 
18657 0 3 14.0873 3.00709 16.2189 
15432 0 3 15.4224 6.00708 16.7445 
7425 0 3 14.8591 2.95461 18.0403 
8842 0 3 16.5758 0.642322 20.5545 
21485 0 3 15.84 2.40707 22.1878 
25345 0 3 15.034 5.72519 22.0549 
8305 0 3 14.4245 1.50537 23.8754 
25989 0 3 11.872 1.76202 26.2878 
7416 0 3 11.7297 1.03965 28.1178 
3771 0 3 15.3858 0.81327 29.0421 
24558 0 3 15.29 2.157 30.6288 
20396 0 3 16.5211 2.5079 30.8171 
9612 0 3 12.5012 4.779 30.7649 
16707 0 3 13.0085 4.9875 31.5719 
7299 0 3 14.2423 5.30497 29.9287 
18140 0 3 15.2175 5.79832 30.4209 
6121 0 3 14.0654 1.68874 33.2635 
4687 0 3 13.0322 10.1591 3.15311 
3569 0 3 15.7288 7.9993 5.03185 
26234 0 3 16.3286 10.5682 5.53813 
7243 0 3 12.6045 6.95622 7.92524 
12207 0 3 12.4233 11.3506 8.13414 
24258 0 3 12.7232 9.06727 12.2991 
8207 0 3 14.0697 9.79639 12.1566 
3920 0 3 15.5317 6.50461 15.781 
16912 0 3 15.6514 8.95082 15.8389 
13168 0 3 12.3828 10.3239 16.0797 
25381 0 3 13.4833 7.15727 20.9856 
13806 0 3 16.7014 8.27256 22.3169 
26970 0 3 15.937 6.21705 22.5764 
26250 0 3 12.0129 10.6946 23.029 
14374 0 3 13.9358 6.50972 24.8516 
7764 0 3 15.1691 10.8026 24.5428 
8415 0 3 15.2645 7.37764 26.7154 
24530 0 3 12.4932 9.24704 31.4503 
19140 0 3 15.3029 10.212 32.5868 
232 0 3 16.3326 11.7196 1.65185 
13793 0 3 11.937 16.3424 0.921906 
24463 0 3 15.8373 12.0741 3.73091 
664 0 3 16.9914 11.7414 3.09182 
15590 0 3 13.2321 15.2797 3.2388 
1196 0 3 12.4235 14.7135 7.7934 
20104 0 3 16.6645 13.5985 6.0965 
558 0 3 12.5314 15.8615 7.25566 
10517 0 3 11.655 12.2736 9.20629 
23594 0 3 15.689 12.3626 8.04194 
396 0 3 16.0354 11.9355 8.92689 
24981 0 3 11.8186 14.108 8.38635 
1585 0 3 16.0803 16.2832 9.38675 
23996 0 3 14.7336 15.4506 10.848 
18381 0 3 12.7348 11.5889 12.5758 
1809 0 3 12.6784 15.7943 11.6234 
1469 0 3 12.2935 12.9071 13.5231 
15105 0 3 13.7327 15.3222 18.7888 
20186 0 3 15.8737 15.0724 22.1085 
20830 0 3 12.8461 13.9149 22.6967 
23599 0 3 13.4383 13.803 25.1571 
23671 0 3 12.4016 13.2439 27.9293 
11953 0 3 14.2975 12.056 27.5346 
25376 0 3 16.6126 13.2057 28.3865 
10595 0 3 13.3325 15.0432 29.041 
9387 0 3 14.3339 14.5933 29.1399 
26114 0 3 15.1085 14.7888 32.1835 
24908 0 3 16.2641 13.7945 32.3912 
18158 0 3 15.3838 18.0987 2.51069 
7122 0 3 13.9865 19.1255 3.35159 
23890 0 3 12.5371 22.2117 10.3173 
11768 0 3 13.9514 17.6858 13.0334 
15519 0 3 15.1145 17.5285 13.7967 
19790 0 3 12.4741 21.9929 14.0964 
4620 0 3 12.3369 18.4829 18.4699 
1756 0 3 11.6686 21.5882 22.4237 
6556 0 3 12.3983 18.499 23.2535 
14083 0 3 12.6351 19.1968 24.2012 
22833 0 3 11.8919 19.6899 25.7136 
10136 0 3 13.1121 18.6844 32.544 
10507 0 3 12.0747 20.3945 33.2999 
25559 0 3 11.6288 25.7561 1.35602 
12557 0 3 13.5426 24.5414 1.89998 
9710 0 3 15.8941 22.7527 2.67045 
23292 0 3 16.1173 25.5078 6.43882 
20361 0 3 14.7588 24.256 8.29788 
23039 0 3 12.4003 24.1252 10.6004 
19150 0 3 11.7164 26.6336 10.743 
25960 0 3 14.2626 22.9416 13.3081 
10374 0 3 12.5414 26.7284 11.7051 
15376 0 3 15.2766 27.1485 11.7524 
3728 0 3 16.2595 23.4806 14.883 
24088 0 3 16.4263 23.1551 16.433 
20085 0 3 12.5258 25.7431 16.0645 
26080 0 3 14.0225 26.526 18.4362 
10125 0 3 12.8039 22.7285 18.8758 
18556 0 3 12.7454 24.6525 22.3568 
17762 0 3 13.8605 26.933 21.8455 
5668 0 3 11.6076 26.5203 26.9449 
8797 0 3 16.0006 23.4285 28.2942 
19671 0 3 16.5746 22.558 28.5241 
17465 0 3 15.1269 23.0413 31.391 
20402 0 3 13.3223 26.0674 30.5895 
15572 0 3 16.2443 25.4732 30.1955 
21654 0 3 13.5394 27.6907 29.9538 
28 0 3 12.6144 23.2374 31.984 
4216 0 3 12.9259 28.2577 2.2767 
20269 0 3 15.3878 33.1978 1.94993 
13876 0 3 12.7884 29.6972 2.60524 
8271 0 3 13.2398 29.6765 3.57626 
13882 0 3 14.3555 30.357 2.97113 
5661 0 3 14.4049 29.0687 4.635 
10977 0 3 14.697 30.167 4.95433 
19152 0 3 15.987 29.756 10.4362 
11932 0 3 12.5415 31.3192 14.9214 
22415 0 3 12.5465 31.4843 15.9845 
17292 0 3 16.917 28.1833 20.4007 
18998 0 3 13.5867 31.9892 20.2208 
17597 0 3 13.5449 29.6524 20.8538 
14021 0 3 16.7912 30.2291 22.2963 
24888 0 3 15.4446 31.1695 23.1596 
20504 0 3 12.5073 32.3345 23.4213 
7641 0 3 14.6092 32.5844 25.909 
12212 0 3 13.9046 28.5785 27.9142 
4704 0 3 16.4179 29.9902 27.3393 
20346 0 3 14.7092 29.1889 28.2705 
22520 0 3 16.5207 28.1637 31.584 
21091 0 3 14.9864 33.337 32.3954 
22862 0 3 20.4833 4.09127 2.01566 
2726 0 3 22.1072 3.32475 3.51075 
17435 0 3 19.428 5.34888 3.58595 
19394 0 3 17.9111 2.63644 5.53245 
22334 0 3 21.121 4.97108 5.71713 
8633 0 3 19.2333 2.17403 7.47891 
7963 0 3 18.9648 4.09455 7.01962 
25242 0 3 19.6991 3.84332 8.7314 
13817 0 3 18.4453 2.38353 12.3041 
26928 0 3 18.052 0.792532 13.4648 
12233 0 3 18.0211 4.14724 16.0574 
5787 0 3 19.9199 3.57451 15.4821 
8736 0 3 18.1802 3.01954 17.0507 
7990 0 3 17.4943 0.681237 19.4455 
2717 0 3 20.6211 0.892455 19.2218 
6897 0 3 20.4617 0.920861 20.263 
9002 0 3 22.1262 4.59133 20.2253 
23293 0 3 20.0988 3.69557 21.3356 
20615 0 3 20.0763 3.15353 24.1474 
4221 0 3 19.6056 5.06609 26.8165 
24434 0 3 21.0228 4.23713 29.5392 
19188 0 3 19.4816 3.38846 30.2684 
24991 0 3 17.4311 4.29289 30.2227 
26389 0 3 21.3003 4.67982 30.9159 
4085 0 3 20.1371 8.45332 1.21344 
7585 0 3 21.3254 6.95274 3.01999 
24838 0 3 17.2984 8.09743 2.57067 
11359 0 3 17.4016 9.44778 4.09303 
20856 0 3 19.9983 7.06229 4.81145 
16699 0 3 21.9783 8.29054 4.69808 
4328 0 3 21.031 8.5292 5.20015 
6301 0 3 17.1607 6.95028 6.51418 
23557 0 3 18.7893 11.3331 6.58361 
3012 0 3 21.7504 7.8038 9.26614 
20951 0 3 19.3421 10.1118 9.1864 
15912 0 3 18.8073 9.34241 12.8147 
3042 0 3 18.6992 10.3396 13.055 
13472 0 3 18.9094 9.79615 11.6584 
17631 0 3 19.7869 6.93305 15.9009 
4604 0 3 18.5269 8.28186 15.3132 
13008 0 3 22.2769 10.4316 17.99 
26222 0 3 20.941 8.62099 20.0972 
18471 0 3 19.2086 6.64533 23.9196 
14850 0 3 20.3458 8.09273 25.4858 
1227 0 3 20.4366 6.23123 28.0472 
9624 0 3 21.1319 6.74725 28.7145 
24973 0 3 17.8252 7.82275 30.1274 
20222 0 3 20.7242 6.72034 31.4683 
26878 0 3 22.2133 9.50262 30.687 
15910 0 3 18.3239 7.03613 32.9737 
3349 0 3 20.7615 6.57808 32.6721 
12685 0 3 18.8888 11.0751 32.4722 
7558 0 3 17.9167 16.4264 0.678936 
6789 0 3 17.7816 13.7872 5.9694 
1387 0 3 17.7358 12.0257 7.09936 
16172 0 3 21.7913 15.0789 6.23493 
1179 0 3 21.1357 16.1207 9.6061 
555 0 3 17.6406 14.6075 9.76869 
20888 0 3 20.5084 16.1363 11.4933 
3076 0 3 20.5332 16.2168 16.14 
21841 0 3 20.3491 12.1901 17.4505 
9420 0 3 20.0488 15.4453 23.1347 
23499 0 3 17.6218 12.966 27.8849 
11568 0 3 18.1284 16.5455 27.411 
12387 0 3 19.4097 16.4784 27.389 
5902 0 3 18.6378 14.8618 28.3432 
9620 0 3 17.8374 13.3668 29.8869 
8824 0 3 17.893 14.665 31.347 
11029 0 3 19.7388 15.4252 31.6022 
17245 0 3 17.2854 17.8149 2.34627 
12348 0 3 22.4344 21.9762 2.30356 
16844 0 3 21.4014 18.4717 3.61479 
3997 0 3 20.1191 19.9996 2.56198 
22675 0 3 21.6045 17.7384 4.51631 
9332 0 3 18.226 19.1238 5.52014 
8353 0 3 17.5475 20.7689 5.6432 
5736 0 3 21.8676 21.1633 5.36068 
17186 0 3 17.7981 18.464 6.42391 
13294 0 3 19.4043 17.4655 7.84002 
9043 0 3 20.7418 20.7941 7.75251 
12684 0 3 22.4493 17.3299 8.55321 
18319 0 3 20.1831 17.0442 10.1933 
6160 0 3 20.6688 19.4602 12.0572 
979 0 3 18.5053 19.811 15.3561 
26397 0 3 18.5095 18.0166 18.1384 
25755 0 3 20.7619 18.5373 18.4417 
3847 0 3 21.5211 17.4784 18.7598 
227 0 3 19.5816 20.3476 18.167 
644 0 3 21.2848 21.4861 18.5373 
19339 0 3 20.9857 22.1606 17.1895 
19971 0 3 18.1022 20.9442 21.2326 
12362 0 3 22.0027 21.1714 20.7655 
10011 0 3 18.9906 18.5108 23.6953 
6942 0 3 19.8518 19.3217 24.0573 
7016 0 3 22.4488 20.7972 22.532 
14952 0 3 19.8032 19.3035 26.065 
18245 0 3 17.662 22.1946 25.2686 
15014 0 3 21.5052 22.4539 24.7121 
15057 0 3 18.8748 19.2872 26.7168 
25796 0 3 17.5903 20.8956 26.4481 
10600 0 3 18.0016 17.1648 30.5268 
9896 0 3 22.3527 21.6976 30.878 
21795 0 3 21.2536 18.2195 33.2415 
17603 0 3 18.7682 26.0727 0.679633 
924 0 3 21.2383 24.8993 0.834669 
8874 0 3 20.5092 27.586 2.19562 
5684 0 3 20.9832 26.5966 0.849382 
18354 0 3 18.5778 25.5198 13.0312 
12528 0 3 21.3735 25.135 11.5371 
10474 0 3 17.6758 25.6816 16.8335 
6495 0 3 20.2168 26.1847 16.0595 
1730 0 3 17.2048 24.3786 17.7816 
5813 0 3 18.7969 22.7699 20.2567 
16779 0 3 21.468 22.5629 19.2294 
8433 0 3 21.914 27.2645 22.1028 
11701 0 3 17.6829 26.7328 24.3836 
23469 0 3 21.2447 25.9011 26.7365 
732 0 3 19.5406 23.5316 30.2271 
3936 0 3 21.7562 25.3437 31.8457 
6647 0 3 18.7759 31.4091 2.40479 
7039 0 3 17.8197 32.3445 0.819972 
24910 0 3 19.5541 31.9189 5.0582 
26279 0 3 20.1033 29.0665 8.76566 
14049 0 3 19.6957 30.0503 8.7379 
18099 0 3 17.6049 32.5502 9.29652 
1130 0 3 18.5238 28.7728 9.80495 
5415 0 3 20.5067 30.2148 10.0461 
11743 0 3 21.9986 30.928 11.1703 
23799 0 3 18.5338 29.103 13.3437 
21589 0 3 22.0232 29.0848 13.382 
19062 0 3 20.215 31.2701 13.6875 
18056 0 3 21.5562 29.4412 15.7382 
11025 0 3 21.5838 31.9761 18.6761 
25207 0 3 17.7545 29.6693 21.4968 
7821 0 3 22.3624 28.5481 22.0948 
12322 0 3 20.4942 33.2443 21.5057 
598 0 3 18.5525 28.1804 24.2465 
16444 0 3 20.6446 32.907 22.8053 
16953 0 3 21.3712 33.2744 24.2199 
7545 0 3 18.6864 31.0157 27.1313 
15327 0 3 19.3427 31.2667 26.3331 
17484 0 3 20.6233 30.1185 27.5619 
7631 0 3 18.821 32.7906 26.3926 
11929 0 3 20.5974 29.0667 27.9902 
3998 0 3 21.207 29.5017 28.9217 
13377 0 3 17.2893 28.3472 30.8827 
833 0 3 18.4616 27.9558 30.9676 
10114 0 3 19.1072 31.8565 31.0141 
13237 0 3 18.854 32.7361 30.1466 
9708 0 3 17.2101 28.5732 32.5449 
16207 0 3 21.3373 30.6043 32.6554 
19589 0 3 24.2145 1.26088 2.6583 
10429 0 3 24.3787 2.60525 2.9156 
718 0 3 25.2891 2.378 5.79046 
17611 0 3 25.9489 1.59102 5.53469 
11543 0 3 26.6864 4.5976 5.14145 
985 0 3 26.1557 5.0983 6.89358 
18459 0 3 23.3465 0.823364 11.4922 
20960 0 3 26.2655 3.39275 10.1466 
6140 0 3 23.8454 1.43057 12.9355 
26659 0 3 26.9074 1.46771 13.1065 
22253 0 3 24.9345 3.06519 14.572 
11344 0 3 26.7719 3.95228 14.8969 
15998 0 3 26.8189 1.42678 15.4758 
19543 0 3 26.5921 0.923054 16.7782 
16724 0 3 24.6508 2.85477 17.3336 
22130 0 3 26.4038 4.85938 18.4047 
15091 0 3 23.1073 1.94074 19.9171 
4582 0 3 22.7297 5.14879 28.5808 
6667 0 3 24.8333 5.00641 28.9709 
26937 0 3 22.8618 2.90439 32.4682 
9072 0 3 27.0865 4.65014 31.6206 
9804 0 3 26.2762 8.6362 0.950827 
282 0 3 27.0411 10.3142 1.17051 
22975 0 3 27.4688 7.40094 4.08235 
6532 0 3 26.9787 7.44351 2.64755 
20321 0 3 25.1738 11.316 3.65493 
1992 0 3 26.9371 11.4282 4.21078 
26741 0 3 24.3422 10.7099 5.6793 
24550 0 3 27.8942 8.44573 7.18892 
9937 0 3 27.8607 11.2145 6.98079 
19384 0 3 27.3814 8.40382 12.8915 
13374 0 3 22.6852 10.2668 12.648 
20458 0 3 24.3896 6.86875 14.9939 
23731 0 3 23.2955 7.77338 15.9059 
8405 0 3 27.266 8.43612 16.6711 
16437 0 3 26.7557 10.8011 16.3162 
9893 0 3 26.4401 9.15316 18.6809 
5727 0 3 25.9333 7.7892 18.9472 
1073 0 3 24.9754 6.07636 21.827 
5925 0 3 22.5387 7.94834 21.4011 
723 0 3 22.9742 11.4471 21.2623 
24763 0 3 23.6698 8.24464 25.9548 
5188 0 3 26.817 7.62286 26.617 
20614 0 3 24.7507 10.2821 32.8474 
19776 0 3 25.7401 11.0446 31.8204 
19972 0 3 26.8449 12.419 1.23269 
12081 0 3 27.5427 14.4946 0.639118 
10422 0 3 26.0482 16.568 2.32988 
12940 0 3 27.3178 13.3239 3.35131 
7738 0 3 25.2938 14.8598 4.00874 
2899 0 3 26.0449 16.9612 6.31014 
15703 0 3 25.7659 16.7441 8.19693 
22991 0 3 22.8795 13.8747 11.3829 
13589 0 3 23.9827 14.4807 11.148 
23540 0 3 27.6445 11.7449 12.011 
2672 0 3 23.6664 16.8898 12.4284 
6453 0 3 25.3487 15.2225 12.7321 
13267 0 3 23.13 14.7877 13.5779 
15303 0 3 24.7452 16.1962 14.5115 
3393 0 3 23.2375 15.0888 16.9649 
5025 0 3 25.7278 16.0652 16.5383 
15306 0 3 22.4916 13.0178 18.2581 
12255 0 3 24.3326 11.5645 18.4191 
17003 0 3 25.0241 15.0738 17.8579 
24281 0 3 25.851 15.8318 17.6586 
270 0 3 24.0377 12.7206 20.5393 
10797 0 3 25.6965 14.9402 20.5759 
24192 0 3 23.8181 16.3965 20.3233 
5993 0 3 27.8098 15.2124 21.2528 
18443 0 3 24.6455 16.7837 22.7509 
21390 0 3 23.646 11.99 25.7682 
26622 0 3 23.5063 14.9482 24.8091 
20764 0 3 25.0639 14.2998 24.3622 
1040 0 3 26.26 13.7386 26.1479 
23822 0 3 24.1255 11.7671 29.5166 
12483 0 3 23.0725 12.715 32.9549 
21683 0 3 27.6172 14.2117 32.4136 
19541 0 3 23.0376 18.0615 0.646614 
14183 0 3 24.3511 17.7199 1.49639 
20706 0 3 22.7699 18.9784 1.48469 
1606 0 3 24.6917 18.2104 3.84386 
16064 0 3 23.7563 21.798 5.79276 
26572 0 3 22.6936 22.1687 6.54892 
8233 0 3 27.6995 18.1772 8.83062 
3598 0 3 26.4021 20.1882 9.67273 
7139 0 3 24.2211 17.6487 11.9361 
12537 0 3 26.8407 21.8017 14.7693 
20921 0 3 22.8169 17.9232 16.359 
23098 0 3 25.8954 19.6508 16.4355 
4999 0 3 24.2845 22.0124 15.604 
12035 0 3 23.435 18.9222 20.0206 
4949 0 3 24.3874 19.2707 20.1195 
502 0 3 24.7623 18.288 21.5229 
8141 0 3 26.7793 18.6509 21.5362 
8454 0 3 23.276 19.943 21.8757 
22590 0 3 27.5331 20.2091 22.5691 
8667 0 3 25.3146 21.6025 22.9956 
127 0 3 27.6288 18.1959 25.203 
26465 0 3 25.8284 18.7608 28.617 
26978 0 3 24.8901 18.2047 29.2688 
1259 0 3 22.9483 21.8911 29.1181 
18147 0 3 25.9989 21.1793 29.3517 
16774 0 3 27.2692 19.868 29.8014 
22507 0 3 27.6718 17.2897 32.9264 
20903 0 3 26.4057 20.1544 32.2775 
3592 0 3 26.2393 21.2581 32.0408 
21658 0 3 26.1541 24.6905 2.07995 
26100 0 3 27.1709 27.1574 0.873306 
9673 0 3 24.6385 23.7526 3.24884 
22831 0 3 25.3662 25.4019 3.72603 
1467 0 3 23.3371 24.5603 5.3707 
26441 0 3 26.2309 26.0708 5.15829 
23675 0 3 26.8321 25.6112 6.04325 
5733 0 3 24.4413 26.9183 7.58047 
6494 0 3 23.5227 24.7665 9.178 
12234 0 3 24.6349 25.1527 9.07793 
6792 0 3 26.1355 27.6229 9.50188 
13251 0 3 27.6842 26.4486 8.11837 
25085 0 3 27.3075 25.1889 12.5426 
5043 0 3 27.6846 25.5329 11.5942 
18948 0 3 22.6334 26.8062 12.4726 
5930 0 3 22.7904 26.6343 14.7865 
2966 0 3 25.0158 22.4903 16.322 
9722 0 3 26.7403 23.6338 16.8768 
25075 0 3 26.1609 24.4831 17.903 
24905 0 3 27.2715 27.576 18.0236 
17525 0 3 23.0976 25.0424 18.8757 
23398 0 3 24.2518 27.5955 20.5806 
23984 0 3 26.9928 23.3636 21.5381 
10924 0 3 26.8879 25.9022 21.4936 
15182 0 3 24.0402 27.4306 21.7759 
20699 0 3 25.3884 25.2312 23.1079 
3114 0 3 26.4033 24.8066 22.9649 
13739 0 3 22.596 22.7569 25.5348 
14133 0 3 23.4247 24.3982 24.5229 
2849 0 3 25.9398 24.3855 25.3143 
10926 0 3 23.4593 27.5421 24.9981 
5452 0 3 26.297 27.749 24.6588 
24879 0 3 27.1582 24.1867 28.7168 
9318 0 3 27.7277 25.2253 28.7128 
19657 0 3 25.4448 23.4074 31.1917 
10881 0 3 23.5979 26.5679 32.0339 
4992 0 3 23.4226 28.5277 1.3659 
6085 0 3 22.7519 31.7558 3.6126 
23397 0 3 25.5548 32.2894 4.38542 
20250 0 3 22.6369 28.2565 9.57842 
5791 0 3 25.3798 28.1074 8.99592 
26598 0 3 25.9552 28.3693 8.08352 
10927 0 3 25.9674 30.7023 10.9641 
21293 0 3 25.1545 32.739 10.0896 
22637 0 3 27.3052 29.7532 11.6782 
3310 0 3 26.0115 32.5995 14.17 
12895 0 3 23.4657 30.4205 16.1456 
24421 0 3 25.116 32.2256 16.2172 
25004 0 3 26.9443 32.1251 15.1974 
16524 0 3 24.8117 28.0289 18.9598 
23212 0 3 25.8089 31.5297 20.3771 
23588 0 3 26.8822 32.6527 19.1559 
24051 0 3 25.9294 29.0176 22.3063 
5399 0 3 27.7944 28.2713 21.1567 
18472 0 3 24.9354 31.0167 21.8338 
14337 0 3 26.1558 29.649 23.4007 
10590 0 3 24.4107 30.4792 24.0034 
294 0 3 23.7916 32.1373 23.0158 
4680 0 3 25.5662 32.1649 27.0564 
12088 0 3 25.0784 33.1947 33.1376 
19001 0 3 28.0066 3.82012 5.90547 
10122 0 3 28.7494 3.80742 5.21345 
2129 0 3 30.5218 5.07946 4.47326 
26087 0 3 31.2902 2.16346 8.4116 
20327 0 3 32.2013 3.16814 8.19542 
26929 0 3 30.5258 5.57752 12.1482 
12250 0 3 28.4938 2.82756 14.3233 
21143 0 3 31.6995 2.58288 15.8151 
26763 0 3 31.9577 1.58415 19.4877 
16149 0 3 28.0373 3.81644 19.8911 
16702 0 3 31.529 1.54416 21.9256 
24870 0 3 28.7041 4.8166 21.6086 
14081 0 3 29.8459 5.54778 21.7113 
17018 0 3 31.9265 5.38177 23.1651 
21249 0 3 32.6743 2.02425 26.0799 
26582 0 3 30.3585 1.22782 27.5526 
24528 0 3 32.4586 2.98935 26.6709 
25506 0 3 31.9699 5.27575 26.2097 
1757 0 3 31.4525 1.83865 28.6091 
25334 0 3 30.0542 1.34239 28.5424 
20357 0 3 29.9074 6.0188 28.3245 
4377 0 3 31.4351 1.27033 30.7228 
11898 0 3 28.0374 4.34557 31.3304 
7418 0 3 31.3252 10.7735 1.18735 
17490 0 3 29.6528 6.86551 7.58916 
24284 0 3 27.9831 10.7022 8.93124 
26376 0 3 29.4807 7.30917 11.182 
15098 0 3 32.9515 10.1218 10.3205 
5949 0 3 31.1623 7.30121 13.5962 
1258 0 3 31.0106 10.8772 14.0334 
25942 0 3 32.0381 11.0233 14.6617 
20197 0 3 30.2781 10.378 16.1302 
858 0 3 32.94 8.59733 17.3424 
25901 0 3 29.0034 10.4443 18.7111 
20629 0 3 28.9527 7.21004 18.9596 
6587 0 3 30.6911 8.37003 19.8375 
26123 0 3 28.6744 7.10074 21.4153 
3613 0 3 32.4172 6.50498 21.1734 
9811 0 3 31.1989 9.21301 20.9293 
19024 0 3 31.3793 10.1355 21.8525 
5944 0 3 28.9094 7.44207 22.5451 
24821 0 3 30.1613 6.41532 22.7248 
26594 0 3 33.3277 10.063 26.4734 
6323 0 3 30.8806 7.47053 28.5993 
12433 0 3 30.6602 8.35316 29.712 
1530 0 3 31.1714 7.16307 30.631 
8315 0 3 33.3942 7.7794 29.8788 
21472 0 3 29.4704 12.3559 2.40026 
8543 0 3 31.9984 13.8321 2.63398 
549 0 3 31.0342 14.4834 4.46601 
22995 0 3 31.8013 13.681 5.80126 
14215 0 3 32.1592 16.1583 7.7323 
12552 0 3 28.674 16.7126 8.46151 
25551 0 3 31.3704 11.6989 13.4178 
10798 0 3 31.1236 13.2438 14.7936 
5769 0 3 30.4006 11.922 15.5906 
12236 0 3 30.373 15.2542 18.7421 
20164 0 3 32.9569 12.74 19.2134 
26084 0 3 27.9678 13.3907 20.2262 
6517 0 3 29.0877 16.1617 21.6867 
16126 0 3 30.0087 15.4788 21.4679 
4416 0 3 30.9955 15.2724 25.6308 
10508 0 3 30.8831 12.6008 27.5932 
24430 0 3 32.7542 15.2654 27.2295 
7650 0 3 28.1956 13.8701 29.105 
16353 0 3 29.6606 14.8523 30.9454 
21197 0 3 29.6836 12.2648 33.0043 
12835 0 3 32.587 12.6668 32.097 
8408 0 3 28.9617 16.0674 33.3703 
18109 0 3 30.383 16.1218 32.9181 
20953 0 3 32.1917 15.6491 32.7716 
21807 0 3 31.3387 18.6037 1.17852 
7725 0 3 29.2029 21.7836 2.05833 
23341 0 3 29.6138 22.2787 3.49672 
21036 0 3 27.952 19.8899 6.17235 
4180 0 3 31.9598 20.1777 8.50755 
9025 0 3 32.3952 17.5534 10.125 
3297 0 3 30.9669 20.2063 10.2251 
403 0 3 28.4703 21.5965 10.3555 
18967 0 3 29.4138 20.3852 16.3704 
5005 0 3 33.1389 20.0464 16.3559 
25602 0 3 28.664 22.2728 15.9699 
16517 0 3 32.8938 17.2641 17.1507 
20405 0 3 30.5913 19.574 19.9962 
1937 0 3 32.2205 18.5939 22.0651 
8001 0 3 31.7961 20.6374 22.3476 
3738 0 3 32.8594 20.1743 21.8596 
12824 0 3 29.6239 20.7317 23.915 
14390 0 3 30.1252 18.4806 27.8135 
10931 0 3 32.7443 17.178 28.3322 
8322 0 3 33.3082 22.3876 27.9453 
16924 0 3 31.3005 21.0094 30.1494 
22391 0 3 31.7802 21.6253 31.0588 
15010 0 3 32.1315 18.3709 31.9937 
4644 0 3 30.2472 20.0588 33.2186 
22386 0 3 30.5166 23.0813 2.40541 
11360 0 3 28.2987 24.4469 1.72024 
22683 0 3 30.2459 27.6488 4.01131 
18628 0 3 31.9251 26.961 9.05193 
2379 0 3 29.8504 24.7688 10.1395 
20781 0 3 31.3976 22.4975 12.6762 
20384 0 3 29.5029 26.8939 12.981 
2665 0 3 31.9478 26.2576 13.3396 
20999 0 3 29.7988 25.0719 18.7203 
12086 0 3 29.6396 27.6209 17.0111 
11471 0 3 32.1043 27.21 20.5234 
23409 0 3 30.137 24.2467 24.5554 
3605 0 3 32.0179 24.337 25.1683 
17171 0 3 32.785 26.4599 24.5261 
13510 0 3 32.4955 26.7657 25.6452 