ITEM: TIMESTEP
7000000
ITEM: NUMBER OF ATOMS
900
ITEM: BOX BOUNDS pp pp pp
5.9153331474142945e-01 3.3408466685257878e+01
5.9153331474142945e-01 3.3408466685257878e+01
5.9153331474142945e-01 3.3408466685257878e+01
ITEM: ATOMS id mol type x y z 
20031 0 3 1.9464 2.25065 1.0862 
2662 0 3 4.53583 5.65143 1.69913 
12784 0 3 4.90542 3.21884 3.05324 
24206 0 3 2.90608 4.34476 7.01058 
11099 0 3 4.3971 5.6955 7.52864 
11533 0 3 5.48378 1.6049 9.30319 
9238 0 3 5.13927 2.63397 8.743 
5048 0 3 2.7519 4.66215 11.3367 
10094 0 3 4.6163 5.98605 11.0644 
15049 0 3 2.53325 1.3876 11.5517 
18305 0 3 2.56077 2.9866 12.7316 
15904 0 3 2.96542 4.21209 13.1502 
14326 0 3 1.77692 2.49848 16.9355 
18895 0 3 4.78547 2.76933 21.4054 
1812 0 3 2.79587 5.58636 21.8677 
26267 0 3 3.24168 2.82529 22.6899 
12367 0 3 0.870453 2.19072 25.6333 
18937 0 3 4.1714 6.06013 24.885 
21677 0 3 5.80033 5.28368 25.8006 
19050 0 3 2.36147 3.80982 28.8975 
18494 0 3 4.30435 5.44809 29.6533 
3794 0 3 2.81145 3.66185 30.187 
14958 0 3 4.18709 3.92107 29.8987 
15173 0 3 1.67309 5.74545 31.9372 
11356 0 3 5.61988 5.68672 32.074 
7819 0 3 3.28298 11.4171 3.84864 
18918 0 3 5.2753 6.63756 5.24141 
23050 0 3 2.44591 7.8943 6.01632 
18248 0 3 4.0305 10.8464 9.14555 
9328 0 3 0.904109 6.25077 10.4835 
20911 0 3 2.12298 9.6989 11.0846 
12377 0 3 5.48137 8.13734 13.5196 
10112 0 3 1.99323 7.94611 16.3938 
25062 0 3 1.45686 7.6814 21.7047 
20938 0 3 5.86547 8.43698 21.8377 
23734 0 3 5.89867 7.90564 24.094 
20210 0 3 0.761648 11.4501 23.6875 
20408 0 3 1.71082 11.425 23.2483 
23150 0 3 3.98703 6.97093 26.9788 
8624 0 3 5.61009 7.43574 26.7445 
7946 0 3 3.02875 8.19905 30.5867 
19625 0 3 4.10538 9.19919 31.4836 
20889 0 3 1.11786 9.50772 32.6488 
6383 0 3 5.619 14.8433 1.72072 
12261 0 3 4.65315 15.863 2.47547 
7810 0 3 5.25159 15.8237 3.86776 
24467 0 3 0.988841 12.3303 5.68642 
24150 0 3 5.41917 13.4795 5.26557 
26743 0 3 3.11641 16.8676 4.29493 
17899 0 3 3.11584 15.0785 6.21426 
20947 0 3 3.37266 11.6273 8.71856 
8136 0 3 1.61622 15.1077 9.68748 
18741 0 3 3.77438 11.7423 9.73825 
24545 0 3 2.8913 12.0126 10.3423 
19382 0 3 2.44948 12.9009 10.2636 
22331 0 3 4.26742 14.378 10.3661 
16084 0 3 0.87571 12.7578 12.6183 
20499 0 3 3.88135 16.7852 15.0065 
11713 0 3 2.07513 11.5356 15.773 
24960 0 3 3.61452 13.5723 23.9882 
894 0 3 4.98857 14.4979 22.7303 
24067 0 3 2.82476 13.4235 27.0013 
2212 0 3 3.69154 14.5183 26.7955 
24215 0 3 4.42192 15.014 26.3006 
11335 0 3 5.22988 14.4576 26.7579 
6419 0 3 3.77621 15.7667 26.7809 
21935 0 3 4.74844 15.9827 27.0384 
23424 0 3 0.776473 12.3079 28.3443 
25586 0 3 4.21142 16.1856 29.1286 
13542 0 3 4.73143 12.0142 31.5066 
4215 0 3 2.22072 14.5874 30.5032 
16822 0 3 3.87959 16.9728 32.1147 
8631 0 3 0.628278 20.3523 0.95809 
18453 0 3 3.29853 18.0728 6.86156 
10103 0 3 1.43406 20.6377 6.65963 
11902 0 3 4.57933 19.5358 7.51611 
21728 0 3 1.48857 21.3591 7.38948 
22827 0 3 2.33693 21.6977 7.92311 
7347 0 3 1.42261 21.9709 10.2887 
16769 0 3 3.77339 21.7275 14.4251 
15451 0 3 4.95973 20.508 15.9532 
22968 0 3 4.97979 21.8965 20.388 
17056 0 3 2.17358 19.3674 23.0995 
9047 0 3 3.76511 17.3842 26.0435 
16723 0 3 2.64843 19.7812 24.7642 
11130 0 3 5.52987 18.9422 24.3153 
3313 0 3 2.31409 21.9182 25.3083 
15372 0 3 2.73194 17.0401 27.5098 
18749 0 3 5.22534 19.0002 26.7689 
4664 0 3 1.62909 17.4371 28.4927 
18509 0 3 0.862185 17.6485 29.2941 
7249 0 3 0.685501 20.2786 28.5724 
12219 0 3 1.88309 19.9246 29.1703 
20224 0 3 1.39697 20.1825 30.687 
15274 0 3 2.28822 19.796 30.2657 
21306 0 3 2.38152 22.11 30.327 
11629 0 3 1.96078 21.2612 30.686 
6319 0 3 2.45522 20.9726 33.1068 
23220 0 3 5.56126 26.6591 2.33667 
14062 0 3 4.09686 23.0598 3.69626 
16350 0 3 5.7807 26.0998 9.51766 
20602 0 3 2.54017 27.1013 9.41291 
20187 0 3 2.83025 23.8105 11.8901 
541 0 3 4.85748 24.0447 12.1114 
11117 0 3 3.67009 26.0315 12.1538 
23362 0 3 4.91541 26.265 13.1388 
8741 0 3 2.57695 27.1675 16.156 
20477 0 3 5.66911 27.7919 16.6311 
12785 0 3 4.61174 23.9418 17.3279 
23479 0 3 2.18612 23.7235 19.5095 
6886 0 3 5.77918 22.67 20.5317 
14708 0 3 3.42165 23.043 24.1484 
8326 0 3 2.61825 23.4002 26.7443 
14425 0 3 2.05022 26.0813 26.4256 
15307 0 3 5.72878 26.4614 27.8047 
15416 0 3 5.62038 27.6605 27.5773 
21042 0 3 4.09987 24.7166 28.046 
2074 0 3 2.80434 24.2752 30.5079 
4875 0 3 5.26851 22.8888 30.6498 
16118 0 3 0.950756 27.1471 30.6108 
17742 0 3 1.7464 22.8247 31.877 
16219 0 3 2.16379 24.6796 32.6817 
16845 0 3 3.36254 29.8835 2.0493 
23384 0 3 4.89649 30.9255 1.54209 
5779 0 3 2.49152 29.535 2.60566 
20555 0 3 5.71483 29.8313 4.53659 
21845 0 3 2.85675 29.9891 11.5019 
25609 0 3 5.83816 31.7077 10.1804 
21522 0 3 2.84584 30.4888 12.4696 
24803 0 3 3.02549 33.1038 18.5632 
3078 0 3 6.04178 33.0678 18.6341 
4373 0 3 2.27493 30.348 19.1828 
710 0 3 6.02917 29.7633 20.5735 
10166 0 3 2.65059 32.7493 21.729 
9808 0 3 4.98162 29.7165 23.3264 
16069 0 3 5.99349 30.3628 22.9555 
10556 0 3 11.3454 0.642405 1.15676 
6823 0 3 9.43848 1.55611 2.88414 
12256 0 3 10.4489 5.0969 2.45443 
11687 0 3 8.27243 2.49048 5.60144 
20684 0 3 10.272 3.80234 4.53724 
19340 0 3 10.2144 2.25766 7.59577 
19092 0 3 10.0074 5.54786 10.8284 
13478 0 3 10.906 5.24048 11.1499 
3773 0 3 10.8546 5.75314 10.1859 
3154 0 3 8.12666 5.04305 13.3534 
19873 0 3 9.19961 5.16083 11.6116 
26675 0 3 11.0641 2.17947 13.4512 
11964 0 3 9.11272 3.23389 14.268 
17419 0 3 11.1287 3.87045 18.0942 
1580 0 3 7.4782 4.27919 18.1889 
16903 0 3 8.32535 4.11359 18.8629 
3747 0 3 9.88333 5.60659 19.5979 
15535 0 3 11.4382 1.40048 21.6684 
26329 0 3 8.01125 3.40908 22.2628 
19322 0 3 10.679 1.19954 23.4933 
24875 0 3 8.48619 4.00392 23.712 
13586 0 3 6.97406 2.36254 26.6795 
11946 0 3 9.29952 5.71566 27.6654 
6293 0 3 7.69905 4.70895 28.8132 
11362 0 3 7.22546 5.25965 29.7328 
20134 0 3 9.27179 0.820074 32.4861 
17572 0 3 6.53177 5.8658 31.8068 
9094 0 3 9.88509 6.79555 0.678571 
21830 0 3 10.7794 9.61329 1.30309 
18386 0 3 10.9353 7.96101 2.35239 
9593 0 3 6.64927 9.93571 3.67338 
17211 0 3 10.8483 10.6138 3.60748 
5151 0 3 11.365 9.70122 5.30846 
11132 0 3 9.31564 7.76634 7.51954 
15647 0 3 8.06937 6.96046 6.16124 
11826 0 3 11.0444 7.66439 6.28226 
14964 0 3 8.29327 9.52918 7.14625 
19135 0 3 8.28712 8.5021 6.79774 
7719 0 3 9.0751 8.54031 9.26319 
8169 0 3 10.9624 8.62237 9.58934 
12334 0 3 7.53666 10.4697 10.3686 
16208 0 3 6.27633 11.1735 10.3844 
18031 0 3 8.94145 7.74156 12.0984 
14925 0 3 6.89399 8.60995 12.1841 
1134 0 3 9.90514 8.39412 12.4636 
25329 0 3 7.46582 7.15762 13.6765 
20585 0 3 10.2165 8.24237 14.1178 
883 0 3 7.27626 11.047 14.932 
2528 0 3 6.40043 7.03278 20.5284 
1974 0 3 7.79984 8.62633 20.3824 
21652 0 3 9.17027 10.3215 20.0946 
19170 0 3 6.24554 6.15967 26.9527 
11950 0 3 6.81927 6.80822 26.2849 
15315 0 3 9.57532 9.68172 27.9235 
15453 0 3 10.0651 10.3938 26.4064 
4329 0 3 11.0431 7.62612 28.2037 
14402 0 3 8.68659 8.46155 30.945 
11757 0 3 7.35672 13.0133 0.681953 
22390 0 3 8.72309 11.8741 2.11744 
20998 0 3 8.29729 13.6392 1.72099 
19786 0 3 7.98268 13.2729 2.87231 
7627 0 3 9.92487 14.2363 3.70241 
23135 0 3 9.54948 16.5603 3.65055 
8474 0 3 8.61477 12.3644 4.59976 
16935 0 3 8.21618 12.5127 5.93659 
2198 0 3 6.74839 15.8905 4.93735 
16915 0 3 8.94311 13.442 7.16454 
26030 0 3 8.70873 14.3027 7.80057 
726 0 3 8.53132 12.2057 11.2939 
7959 0 3 10.2641 12.0904 13.0431 
22103 0 3 11.0624 12.3091 13.8047 
26211 0 3 6.88897 13.6515 14.4171 
19492 0 3 9.34507 15.9675 13.5977 
1295 0 3 8.80551 15.6662 14.5093 
26393 0 3 11.2822 15.3687 15.2282 
5748 0 3 8.43121 14.742 17.6958 
2060 0 3 7.69982 16.6346 17.895 
3686 0 3 7.73873 13.6685 19.1564 
6115 0 3 6.41782 11.9746 23.359 
13821 0 3 8.9177 13.8285 24.009 
7581 0 3 10.7914 14.1351 25.1653 
19134 0 3 6.73329 16.1571 24.6494 
3593 0 3 11.0416 11.8865 27.3176 
869 0 3 6.62404 15.0201 26.7853 
25510 0 3 8.34835 16.8024 26.4552 
15805 0 3 10.3375 16.5374 26.2229 
17420 0 3 8.48719 12.8037 30.5186 
8719 0 3 6.48048 16.0618 30.7177 
11028 0 3 6.22439 13.3451 32.2752 
11215 0 3 9.12175 13.6596 32.855 
22300 0 3 8.77696 15.3482 32.0059 
18747 0 3 6.08276 17.012 1.52191 
10214 0 3 7.70946 18.9291 2.23959 
14475 0 3 7.07846 19.7855 1.59691 
3820 0 3 8.88756 19.1053 3.26475 
6819 0 3 7.88906 22.0972 5.78794 
23902 0 3 8.88535 21.3917 4.86929 
666 0 3 10.3527 19.677 6.0947 
7515 0 3 6.15048 22.1474 7.57231 
5783 0 3 11.0446 20.8337 7.551 
1502 0 3 7.63298 18.9414 9.66693 
15170 0 3 7.86235 20.421 10.4583 
26213 0 3 9.04855 20.578 10.7014 
15838 0 3 8.73202 22.1059 10.6378 
12077 0 3 10.473 18.0667 12.3855 
15267 0 3 6.10128 20.7334 13.388 
1824 0 3 7.83498 20.7888 15.2061 
23214 0 3 6.59621 22.0991 18.3853 
26335 0 3 9.35547 17.5656 19.35 
8517 0 3 11.3247 19.9761 19.8453 
23575 0 3 11.042 17.1944 20.8683 
5414 0 3 8.8572 20.2799 21.0154 
2847 0 3 10.2783 18.8873 22.0956 
26472 0 3 9.19877 21.8785 22.3983 
20054 0 3 6.63896 17.0388 22.989 
6779 0 3 7.00801 21.094 26.2656 
22796 0 3 8.1013 22.3137 27.4701 
24998 0 3 8.36161 17.1719 30.7221 
23521 0 3 7.3961 19.1147 29.8067 
13386 0 3 10.2835 21.1801 30.8818 
24881 0 3 10.9791 18.8717 33.0373 
6656 0 3 7.78902 22.5644 1.44906 
13230 0 3 8.33999 27.2756 0.877115 
5469 0 3 6.18605 22.6184 2.9715 
20027 0 3 11.4375 25.4445 4.12631 
7441 0 3 7.71432 22.5305 10.6194 
4280 0 3 10.0153 27.026 10.8527 
21455 0 3 6.24615 27.4468 12.3962 
10799 0 3 7.14304 22.5368 13.9297 
23623 0 3 6.67 24.6018 13.5841 
22598 0 3 11.3831 24.9604 13.9586 
834 0 3 10.3636 25.2932 14.14 
19730 0 3 9.5764 23.1434 16.9124 
26381 0 3 10.7855 24.8102 16.2385 
17556 0 3 7.45499 22.7275 17.0736 
25379 0 3 8.95867 24.3325 18.4744 
4605 0 3 8.82093 24.9303 17.428 
13101 0 3 9.32565 27.0772 18.548 
13244 0 3 7.67335 23.4865 19.2564 
11747 0 3 10.0522 25.9732 19.6293 
19887 0 3 8.1946 26.8267 19.9688 
2216 0 3 10.2367 27.1071 19.5659 
20041 0 3 11.2647 27.9151 22.3433 
20513 0 3 9.44829 23.5603 23.5147 
10104 0 3 7.63935 24.4586 23.1392 
3607 0 3 8.18308 26.1455 23.7876 
16847 0 3 9.88521 26.2005 26.207 
839 0 3 9.31003 23.4886 28.1244 
2202 0 3 8.94328 26.3867 28.7388 
12677 0 3 10.3519 25.8251 32.3941 
26373 0 3 10.6323 30.3287 0.837502 
21576 0 3 7.41643 29.151 5.99772 
21869 0 3 8.11072 32.4834 5.45552 
11588 0 3 10.198 29.0841 6.76363 
15373 0 3 6.22206 29.3799 8.55369 
17590 0 3 8.61067 28.6646 11.4644 
2 0 3 6.87565 32.8673 11.392 
1594 0 3 6.09268 28.5424 16.0688 
25604 0 3 6.82759 31.7643 16.9928 
15640 0 3 6.55597 33.3807 17.6974 
8339 0 3 7.2071 31.5201 20.1324 
17553 0 3 8.35414 31.5417 19.0762 
14349 0 3 9.3542 30.7284 19.6951 
23184 0 3 10.444 31.465 19.4068 
12924 0 3 9.44876 27.9956 22.1278 
19558 0 3 7.71189 31.0971 20.9866 
14020 0 3 8.54408 30.0319 20.8375 
3814 0 3 7.72887 29.7744 26.5454 
22788 0 3 8.37088 31.5147 27.5714 
2999 0 3 9.48893 29.9527 27.2191 
3799 0 3 11.3048 29.41 29.2852 
25977 0 3 8.91838 33.093 28.8359 
26398 0 3 11.519 30.0841 31.4696 
16828 0 3 10.0873 32.5623 31.0999 
15759 0 3 6.92519 30.7761 33.2017 
20456 0 3 9.46311 30.4764 31.7974 
1213 0 3 12.9631 3.39146 5.4758 
9260 0 3 16.6335 2.59601 6.14698 
602 0 3 14.5561 1.4429 8.96744 
20570 0 3 15.9394 0.642216 13.5302 
6638 0 3 14.9786 2.80209 13.6847 
4089 0 3 12.4146 4.33462 13.5398 
14205 0 3 13.1707 2.4107 15.8762 
13594 0 3 15.1678 1.88973 16.8131 
7808 0 3 14.4885 2.74504 20.1541 
18340 0 3 13.2703 4.86474 20.2951 
25345 0 3 15.034 5.72519 22.0549 
861 0 3 14.063 2.97082 22.9546 
6392 0 3 12.345 6.01257 23.5761 
23216 0 3 14.6988 6.02246 22.9695 
23322 0 3 16.1486 4.8082 26.7149 
3771 0 3 15.3858 0.81327 29.0421 
10325 0 3 15.9049 1.39014 30.9421 
3930 0 3 16.0604 0.638682 29.8471 
14404 0 3 13.26 2.57218 29.8173 
15811 0 3 14.9096 4.37229 30.8316 
4225 0 3 14.8848 1.48147 31.8543 
15316 0 3 16.6268 1.8163 31.7 
9966 0 3 13.2464 3.83744 33.0697 
22963 0 3 14.2799 7.14594 0.909051 
14206 0 3 14.6882 6.94796 9.11442 
23395 0 3 15.5331 6.22831 9.3473 
20309 0 3 16.6575 9.95371 8.47072 
5075 0 3 12.5909 7.47638 12.2168 
7117 0 3 15.1232 10.79 12.4335 
19165 0 3 14.4948 7.91044 14.3054 
3920 0 3 15.5317 6.50461 15.781 
26776 0 3 14.1325 9.49866 19.8693 
15794 0 3 14.4136 6.63063 21.5295 
26970 0 3 15.937 6.21705 22.5764 
20345 0 3 12.9456 6.46754 25.1599 
2322 0 3 14.8024 7.67598 24.4407 
16119 0 3 15.8414 7.93669 24.3776 
26383 0 3 14.4551 6.71342 26.3509 
202 0 3 12.1881 9.43012 27.147 
146 0 3 13.7749 7.82085 27.9411 
23110 0 3 13.6725 8.92681 29.7233 
6367 0 3 11.6754 9.4915 30.9254 
11244 0 3 12.8158 9.63633 30.3417 
26244 0 3 12.7862 8.05758 31.6017 
24606 0 3 16.4901 14.1314 2.15806 
9929 0 3 16.0884 16.3753 2.00406 
21482 0 3 12.4515 16.846 2.4956 
4297 0 3 12.8027 14.8587 4.3962 
10143 0 3 13.0188 11.9331 6.10898 
10520 0 3 15.6968 16.6046 10.8636 
5781 0 3 14.4624 14.4845 12.1393 
14343 0 3 15.9231 16.8394 11.9019 
20569 0 3 13.6677 12.9506 14.9726 
21212 0 3 15.4548 13.2527 14.8515 
5234 0 3 12.2315 16.8867 13.616 
23149 0 3 12.1042 16.9785 14.714 
23348 0 3 13.1191 15.274 14.5552 
23334 0 3 14.394 16.8828 14.0839 
1212 0 3 14.5616 13.1425 15.4013 
17254 0 3 14.073 16.9916 17.6668 
1882 0 3 16.6906 16.0408 17.1462 
24641 0 3 14.4335 16.9087 20.7863 
19071 0 3 12.8239 14.8709 23.4106 
16673 0 3 11.992 15.716 22.5162 
7866 0 3 13.9257 12.559 24.5205 
24561 0 3 13.7807 15.4797 26.0153 
14208 0 3 14.8383 15.7202 24.4683 
23481 0 3 15.8042 16.8913 24.9432 
22458 0 3 16.8816 13.254 26.2595 
14409 0 3 16.8661 12.2145 27.8267 
4871 0 3 12.9812 16.158 28.7802 
7523 0 3 16.1898 13.4515 31.1283 
17282 0 3 16.6317 16.3282 30.8983 
9938 0 3 14.4576 15.3086 33.1885 
13787 0 3 11.7893 19.896 1.38885 
16462 0 3 12.7033 19.6493 0.712475 
19173 0 3 16.2776 20.9793 1.16807 
11695 0 3 16.2162 17.6639 5.13155 
25114 0 3 15.5034 18.4377 5.81749 
24613 0 3 13.052 20.32 5.41214 
19193 0 3 16.5982 17.9219 6.43843 
23471 0 3 15.5 20.236 6.86538 
2722 0 3 11.663 20.5476 9.32897 
17160 0 3 15.2154 20.0193 8.61805 
5173 0 3 15.6676 19.3509 7.97187 
17204 0 3 16.5274 20.0184 8.8492 
5170 0 3 12.3558 18.6378 12.8677 
18424 0 3 16.4401 18.6996 11.6078 
17975 0 3 13.0915 18.2607 15.1665 
13262 0 3 13.1606 17.6636 16.2414 
9391 0 3 11.6656 18.1582 17.5456 
3471 0 3 13.1809 19.2093 17.905 
11584 0 3 16.6749 18.9429 17.6909 
16442 0 3 11.906 22.4566 18.3362 
10091 0 3 15.503 18.4436 20.5543 
10424 0 3 14.5385 20.7972 19.6867 
23412 0 3 14.7271 21.2054 21.2331 
20258 0 3 16.282 18.7043 22.5978 
8592 0 3 11.5666 19.2147 23.6304 
18042 0 3 11.9132 22.4453 24.6964 
4606 0 3 16.9632 19.4333 27.4474 
15534 0 3 12.8937 19.0113 28.514 
19448 0 3 16.6693 20.5124 28.41 
2848 0 3 15.1618 21.2636 28.1508 
14834 0 3 16.5569 20.2902 30.3994 
642 0 3 16.291 19.9792 32.3626 
8316 0 3 15.1357 23.4098 1.56 
8445 0 3 16.4674 23.8954 0.653853 
12557 0 3 13.5426 24.5414 1.89998 
21065 0 3 12.0655 27.4472 1.93658 
6867 0 3 15.3974 27.7356 2.48975 
22597 0 3 11.9944 24.5239 4.42934 
9383 0 3 12.6798 24.9464 5.68031 
1067 0 3 15.6695 24.5778 5.02143 
9272 0 3 14.2726 22.8841 6.86735 
19032 0 3 16.6085 23.5421 11.8054 
10794 0 3 16.4079 25.7254 12.5271 
7647 0 3 15.7432 25.1697 13.178 
10856 0 3 14.382 26.6216 15.4207 
2547 0 3 14.8952 27.6292 16.6586 
1038 0 3 12.8087 22.9049 17.8046 
11547 0 3 12.4959 26.1663 17.3551 
24966 0 3 15.8798 25.3176 18.9331 
7714 0 3 15.4116 24.3572 19.4876 
10120 0 3 14.6271 27.2419 19.1446 
9053 0 3 16.0815 27.5691 20.2764 
24538 0 3 14.9649 26.4279 21.7907 
23166 0 3 14.4703 22.8515 22.5557 
7932 0 3 11.5357 26.0502 27.9249 
26714 0 3 16.0606 25.394 27.4506 
3583 0 3 12.7564 26.2084 26.1605 
4489 0 3 16.0807 27.8479 26.1631 
11267 0 3 12.2134 25.9804 28.8526 
406 0 3 13.7265 25.3426 28.9963 
24350 0 3 16.681 22.9648 30.1879 
14129 0 3 14.0595 27.1822 30.6576 
4216 0 3 12.9259 28.2577 2.2767 
1200 0 3 12.1007 29.93 1.89454 
6514 0 3 11.7072 32.6386 2.16861 
19766 0 3 16.9113 33.3083 1.374 
8967 0 3 12.1661 29.3638 4.1439 
10923 0 3 13.1853 32.077 3.58705 
4306 0 3 14.0842 28.0428 4.34779 
506 0 3 14.7404 29.0984 5.62142 
24649 0 3 14.1102 32.2761 5.62635 
13590 0 3 15.6679 31.7425 7.61485 
5083 0 3 12.145 28.8111 9.19449 
18093 0 3 13.0831 28.5017 8.83633 
12594 0 3 11.926 29.2897 10.3512 
10897 0 3 14.1853 32.9996 14.0992 
26608 0 3 16.5959 29.558 15.3323 
25073 0 3 14.2955 32.4936 18.7994 
10137 0 3 12.9303 33.1605 20.3186 
8333 0 3 15.5111 28.4734 21.1692 
19000 0 3 14.5413 33.1292 22.0235 
1516 0 3 16.6642 28.9143 24.3285 
12701 0 3 15.6377 31.9255 25.4459 
17808 0 3 14.9163 28.0165 26.5213 
5105 0 3 15.1683 30.9357 26.3146 
7008 0 3 13.6357 32.5301 26.5247 
9967 0 3 13.9652 28.1338 29.0291 
3767 0 3 14.2557 30.4791 28.3734 
11756 0 3 12.9331 28.6374 29.9023 
968 0 3 12.2273 31.2232 30.971 
13461 0 3 15.4617 30.0752 32.2833 
6616 0 3 18.8646 0.767744 4.001 
21598 0 3 17.1412 2.81595 3.73587 
21453 0 3 17.6863 5.84256 2.70159 
18441 0 3 21.4221 1.21166 5.4609 
8670 0 3 20.1628 3.92507 4.5897 
1728 0 3 21.5183 3.88034 6.0181 
22024 0 3 20.2973 5.81047 5.02141 
5300 0 3 17.9338 0.767827 6.84233 
8712 0 3 17.7684 4.29133 8.42804 
13539 0 3 22.1905 4.46258 9.41612 
1514 0 3 17.1924 3.71271 11.276 
13281 0 3 19.8864 5.84229 9.98533 
25108 0 3 21.5065 5.49689 12.986 
2897 0 3 20.2335 2.13606 14.5632 
5196 0 3 21.2983 2.32982 14.2865 
13777 0 3 18.2571 1.14363 16.2677 
17318 0 3 18.6419 0.98199 15.239 
5787 0 3 19.9199 3.57451 15.4821 
23988 0 3 22.1146 4.1844 15.9995 
19084 0 3 18.0858 1.21253 17.4172 
3621 0 3 17.9998 4.90845 17.7443 
19404 0 3 18.2677 5.64841 19.6826 
12311 0 3 18.4907 3.79305 22.5856 
12542 0 3 21.8289 4.78985 32.9301 
1118 0 3 18.6196 10.1025 1.23383 
24286 0 3 19.5417 10.3771 2.19672 
17540 0 3 19.7427 6.24981 3.02653 
20048 0 3 18.2651 8.79851 3.02775 
11359 0 3 17.4016 9.44778 4.09303 
2711 0 3 20.1151 7.93435 4.26542 
22609 0 3 17.3003 10.279 4.58517 
19148 0 3 21.1337 10.1536 6.724 
9039 0 3 18.7393 7.35055 8.35642 
26497 0 3 20.617 7.69644 9.34372 
14931 0 3 20.8068 7.02201 8.51867 
7803 0 3 17.8592 10.7797 11.4394 
19327 0 3 21.8274 7.09507 12.5497 
21680 0 3 18.9368 8.2855 12.007 
8985 0 3 21.6773 9.7535 14.5425 
26368 0 3 22.2591 8.0821 15.9907 
18095 0 3 17.8685 6.17389 17.8858 
15818 0 3 18.5524 11.2519 18.4696 
23142 0 3 19.4771 7.11927 18.9095 
8011 0 3 17.8212 7.94653 19.8037 
14124 0 3 20.4047 9.96579 20.7219 
3912 0 3 18.2278 7.16516 23.4886 
8869 0 3 20.7638 7.71625 22.7282 
17314 0 3 21.8116 8.03638 23.1473 
5123 0 3 21.2915 11.5236 24.52 
4235 0 3 22.1309 7.69743 27.1494 
4334 0 3 21.5404 11.421 27.4498 
1190 0 3 20.4789 10.3646 28.7229 
17698 0 3 19.3843 11.148 31.4306 
4181 0 3 18.2209 7.82952 32.2246 
11815 0 3 19.484 8.60725 32.2902 
5061 0 3 21.8212 9.32742 33.3231 
6166 0 3 17.266 9.92712 33.1004 
8364 0 3 20.7092 10.4033 33.2078 
6414 0 3 18.018 15.4667 1.0278 
5621 0 3 22.3136 15.8158 1.9418 
17679 0 3 18.8318 13.2556 3.30918 
13521 0 3 21.401 13.5555 3.58529 
11583 0 3 22.4426 12.1035 5.91877 
22293 0 3 21.5809 15.1346 7.40639 
25081 0 3 22.188 13.503 8.84733 
4370 0 3 18.7598 11.9944 9.94632 
11381 0 3 18.1132 16.8483 10.6143 
15686 0 3 20.6317 12.5934 12.8713 
22021 0 3 17.0927 16.5567 12.0916 
8426 0 3 18.8751 12.4658 13.6415 
4479 0 3 17.9818 16.3622 14.788 
18454 0 3 22.363 11.7674 18.7558 
2598 0 3 20.1708 14.5278 18.0983 
7309 0 3 21.9328 12.7105 19.766 
13164 0 3 18.7445 15.9517 19.0705 
10969 0 3 17.0916 14.8582 20.816 
18978 0 3 19.2886 15.0548 20.7004 
11227 0 3 22.2642 11.5964 24.1811 
9798 0 3 19.5825 13.6634 23.3675 
190 0 3 21.4586 15.5955 24.4199 
24555 0 3 18.5895 13.8564 28.2704 
6075 0 3 20.3021 14.0835 29.0122 
20845 0 3 19.2343 13.4176 31.2968 
291 0 3 21.15 15.3023 30.2369 
2215 0 3 17.97 11.6352 32.693 
16672 0 3 18.9583 17.9767 1.53814 
26880 0 3 20.4561 17.5779 0.779451 
21784 0 3 19.7541 20.1412 3.56841 
22992 0 3 19.0637 21.6755 6.37059 
18957 0 3 17.7065 17.6236 9.19029 
26377 0 3 20.3703 17.9962 8.12366 
18841 0 3 18.3517 19.4828 9.25549 
14256 0 3 18.4767 17.7704 10.9019 
26247 0 3 21.0072 21.0557 10.0051 
21584 0 3 20.9959 22.3723 12.7561 
18104 0 3 17.305 17.5821 16.4746 
2663 0 3 18.3353 17.2277 16.358 
3898 0 3 22.0366 18.7621 15.6199 
21595 0 3 20.6097 19.8976 18.2015 
7973 0 3 22.3879 22.1256 19.8224 
12714 0 3 19.6622 20.1075 21.5661 
23117 0 3 19.6653 17.3103 22.9243 
10600 0 3 18.0016 17.1648 30.5268 
8166 0 3 21.4557 20.2222 30.5322 
26099 0 3 18.4228 17.2806 32.7681 
19381 0 3 18.2896 22.7848 2.24156 
18968 0 3 17.7646 23.4393 3.24789 
21766 0 3 18.2984 27.3972 2.56488 
4709 0 3 20.9353 27.2519 3.20925 
6541 0 3 18.5967 27.6099 5.4888 
3667 0 3 18.224 24.378 10.9321 
21934 0 3 19.1907 23.2651 12.4539 
5009 0 3 20.2135 27.877 12.3127 
3026 0 3 17.8047 27.0442 14.6203 
18019 0 3 18.2242 23.8593 16.8954 
1043 0 3 18.1526 23.016 18.782 
10673 0 3 18.5034 24.9872 17.1589 
4248 0 3 20.02 26.4089 19.6337 
22338 0 3 21.1453 24.4176 22.3363 
16008 0 3 19.129 25.8191 26.7623 
21601 0 3 17.7092 23.3489 29.7569 
9413 0 3 18.5284 24.3644 29.5691 
17581 0 3 22.2903 26.6382 28.2667 
6723 0 3 21.0584 26.444 30.6452 
9729 0 3 19.7309 24.1975 33.3257 
17362 0 3 18.0165 24.8238 32.0835 
18427 0 3 17.1942 24.6334 33.0679 
2661 0 3 18.7099 29.6546 1.25428 
6647 0 3 18.7759 31.4091 2.40479 
2520 0 3 21.1431 28.3139 3.69369 
20516 0 3 17.4343 31.6122 3.1728 
13675 0 3 18.8741 30.382 4.26304 
672 0 3 19.2887 30.1974 5.58339 
2123 0 3 20.2043 28.3132 7.82968 
21816 0 3 17.8275 32.125 7.48867 
17889 0 3 20.2258 33.3355 8.39416 
14624 0 3 20.2275 28.0495 11.1544 
11549 0 3 17.3639 30.4045 12.8278 
24198 0 3 20.5171 29.2541 16.7193 
23747 0 3 20.1915 31.9778 16.9236 
22380 0 3 20.7453 30.2044 17.3655 
14119 0 3 21.8221 32.3378 20.2055 
14039 0 3 18.0535 28.5994 22.1471 
9582 0 3 19.4409 28.6009 22.3809 
21193 0 3 20.5846 27.9947 22.3561 
2704 0 3 18.0221 30.4063 22.301 
25048 0 3 22.2618 30.273 20.9989 
24904 0 3 18.2036 32.0366 20.7275 
7106 0 3 18.5538 32.5866 21.6865 
8439 0 3 21.5689 28.6067 23.6862 
21765 0 3 17.2489 31.8468 25.3262 
15327 0 3 19.3427 31.2667 26.3331 
12710 0 3 20.7361 28.5422 28.9722 
13377 0 3 17.2893 28.3472 30.8827 
7984 0 3 19.5488 30.7284 30.3271 
5533 0 3 20.5423 32.6584 30.4492 
4729 0 3 18.0639 30.0022 32.8389 
11262 0 3 20.5533 31.1111 31.9804 
10638 0 3 22.6176 3.31978 2.66366 
10429 0 3 24.3787 2.60525 2.9156 
9676 0 3 23.1853 1.66267 5.76352 
25217 0 3 26.5924 3.06661 4.46955 
20930 0 3 27.3669 2.77199 6.26801 
21294 0 3 23.966 5.96219 7.05382 
21667 0 3 22.6098 4.98432 8.33139 
26081 0 3 24.8341 4.38594 7.98638 
11524 0 3 27.8821 1.01363 13.0567 
17368 0 3 23.8482 0.887222 15.1733 
5940 0 3 26.3254 2.6275 17.0895 
21938 0 3 27.6014 3.09805 21.4728 
3812 0 3 25.227 4.06945 23.4775 
17330 0 3 22.5806 5.9012 23.6265 
18656 0 3 25.1751 5.2577 23.7497 
12919 0 3 27.4172 1.48508 24.8789 
9714 0 3 24.7126 3.21719 26.0999 
11316 0 3 25.4244 2.16317 26.7407 
8486 0 3 24.0519 4.10266 29.2169 
15317 0 3 26.4182 4.48402 29.4216 
25347 0 3 24.5836 1.32883 30.3827 
20240 0 3 23.1405 9.23603 0.675104 
11446 0 3 26.6746 9.01163 3.97439 
18584 0 3 24.1457 11.3026 4.76837 
546 0 3 24.5744 10.2042 4.68901 
20956 0 3 26.1739 10.9557 5.97322 
19219 0 3 24.6827 8.66981 6.65882 
5900 0 3 26.2277 9.26134 6.3893 
4665 0 3 27.0589 6.38625 9.50658 
3759 0 3 23.6125 9.19928 8.20508 
25573 0 3 24.3615 11.144 9.06635 
2838 0 3 26.8021 6.79907 11.4086 
22325 0 3 26.3692 8.12995 11.1008 
7720 0 3 22.4919 10.1898 10.0853 
20341 0 3 23.4383 10.5553 10.5188 
19384 0 3 27.3814 8.40382 12.8915 
7229 0 3 27.1846 7.78816 18.2316 
5766 0 3 25.0236 7.91846 18.2614 
10144 0 3 27.5292 9.51869 18.6572 
5472 0 3 24.9387 9.09253 19.9971 
22469 0 3 23.7308 6.96287 21.6052 
25665 0 3 22.9267 9.2281 21.5744 
16676 0 3 23.9336 6.67107 26.0252 
7979 0 3 24.254 8.61962 25.0992 
3014 0 3 22.5399 9.79034 24.3084 
101 0 3 24.9441 6.85222 29.5623 
15564 0 3 24.7337 10.983 28.943 
25297 0 3 27.7018 6.21003 29.9152 
12118 0 3 26.6834 10.7902 29.8686 
19482 0 3 27.6495 7.31505 32.1599 
25937 0 3 23.9527 10.7699 32.2697 
10383 0 3 24.5085 15.8401 0.911166 
1982 0 3 24.9418 16.5443 1.72034 
26938 0 3 23.2411 12.7808 3.14858 
18313 0 3 23.498 16.3276 5.9128 
12993 0 3 25.1426 16.1366 8.98274 
14324 0 3 26.5362 14.919 9.98296 
16836 0 3 23.9428 15.2776 13.013 
17284 0 3 22.9955 16.0963 13.2556 
2545 0 3 24.9103 16.2684 13.3174 
24610 0 3 27.8692 15.8788 13.4016 
7563 0 3 27.8337 12.6444 15.6793 
5152 0 3 25.1108 16.8275 17.3518 
814 0 3 25.0845 13.0547 20.7499 
2337 0 3 27.8379 15.8287 22.2625 
23825 0 3 26.0209 16.9628 23.5092 
12696 0 3 27.813 15.6102 29.2956 
6372 0 3 26.369 12.8145 30.1329 
25763 0 3 25.9756 12.8301 32.0073 
21121 0 3 23.1433 13.8906 33.2845 
6299 0 3 25.9533 16.7758 33.1785 
180 0 3 25.1928 21.1115 1.03415 
1606 0 3 24.6917 18.2104 3.84386 
12935 0 3 25.3496 17.0516 7.25784 
26447 0 3 25.4857 22.2807 9.70367 
15681 0 3 24.9114 20.0839 10.156 
20231 0 3 26.4031 20.2375 10.8122 
10868 0 3 24.5505 22.1752 10.9014 
1972 0 3 26.4884 19.8784 12.8009 
2725 0 3 23.2847 21.0066 14.006 
302 0 3 23.9977 20.4763 18.549 
25298 0 3 23.0569 21.279 20.5197 
2517 0 3 27.388 22.3695 20.436 
25360 0 3 27.1282 17.777 22.1941 
23253 0 3 26.5009 17.0277 22.551 
21388 0 3 24.4389 22.0629 22.5657 
21102 0 3 24.3342 19.6788 25.6211 
1463 0 3 24.9429 17.3467 27.4326 
659 0 3 27.2972 18.8373 26.8744 
26581 0 3 24.1509 18.446 32.6017 
9703 0 3 27.7471 24.2505 0.847694 
21967 0 3 24.2225 24.7784 2.88601 
16451 0 3 24.6763 26.9477 2.88371 
19727 0 3 24.838 24.1026 8.87563 
13272 0 3 27.0796 26.9959 10.9747 
5683 0 3 26.187 27.8652 11.1709 
21904 0 3 23.4341 27.1189 14.1457 
7486 0 3 23.3659 23.5431 15.7001 
4098 0 3 27.6624 24.0087 15.659 
17525 0 3 23.0976 25.0424 18.8757 
19973 0 3 24.4813 26.0211 19.1035 
18577 0 3 24.9468 26.5137 20.4917 
3032 0 3 26.3285 24.2008 21.2276 
17446 0 3 23.8505 24.6269 21.9154 
11266 0 3 26.0796 22.5423 23.1665 
5452 0 3 26.297 27.749 24.6588 
4662 0 3 26.6935 27.7387 25.6985 
13248 0 3 22.8884 22.9858 26.4279 
12423 0 3 27.201 23.9203 29.7613 
12319 0 3 24.2821 26.5184 29.9569 
16422 0 3 24.0394 26.3955 31.0189 
16107 0 3 25.0619 27.2903 29.7742 
8808 0 3 24.5036 29.4024 6.61163 
18573 0 3 26.0352 29.2908 7.47072 
9597 0 3 24.6343 31.4626 8.59225 
18430 0 3 26.0684 32.9639 9.28606 
26089 0 3 27.2809 33.2933 8.73862 
15690 0 3 24.159 30.9604 12.0593 
9633 0 3 23.4341 31.4617 17.0623 
8646 0 3 23.6986 31.819 21.0722 
5845 0 3 24.8802 31.7446 20.9205 
12723 0 3 27.6671 32.5996 22.5695 
26338 0 3 23.2251 29.7298 24.9229 
12821 0 3 23.6759 29.3437 25.7521 
25622 0 3 26.171 31.2454 27.3907 
18377 0 3 25.7226 31.8252 28.4162 
25328 0 3 27.3385 32.2546 29.7905 
12445 0 3 24.808 30.8153 32.3589 
12088 0 3 25.0784 33.1947 33.1376 
2967 0 3 26.6402 31.7847 32.5592 
16367 0 3 31.4518 4.81622 1.24266 
13769 0 3 30.0463 4.59775 8.99392 
13235 0 3 33.3157 1.32088 11.3522 
20315 0 3 30.3936 4.02139 10.7923 
24053 0 3 29.4012 5.60553 9.72429 
23370 0 3 29.5331 5.03191 11.0843 
13390 0 3 29.0205 5.46137 12.9815 
5195 0 3 33.393 1.71605 16.7021 
21037 0 3 30.9101 3.55607 16.0382 
20028 0 3 32.9253 3.41253 15.5698 
23389 0 3 28.3323 2.11919 17.5308 
21440 0 3 28.3642 5.40796 18.2682 
9614 0 3 28.8352 1.86344 19.2732 
50 0 3 28.9492 4.73382 19.5229 
2670 0 3 31.3911 3.58221 26.1087 
8000 0 3 30.7548 4.13811 27.7143 
16719 0 3 33.1163 4.1351 27.7061 
12957 0 3 29.1889 2.19771 32.3632 
10330 0 3 28.6323 4.5829 33.1963 
11933 0 3 32.2327 5.76254 32.1919 
22454 0 3 33.29 6.16218 1.69627 
22603 0 3 30.9042 8.17818 2.91241 
26985 0 3 30.2274 7.83673 5.95853 
18318 0 3 32.8458 8.03481 8.40282 
7874 0 3 32.0377 8.21161 9.34049 
14235 0 3 29.4348 6.54947 10.3444 
5790 0 3 31.959 9.71241 12.2465 
638 0 3 32.5165 10.6359 12.061 
8603 0 3 28.2769 6.67772 13.6666 
14320 0 3 33.3862 7.68004 14.1903 
16174 0 3 31.9134 6.1304 16.6688 
7971 0 3 28.5203 11.4296 15.5197 
19450 0 3 32.6391 9.83735 17.2408 
11545 0 3 32.1446 9.76058 22.7409 
141 0 3 32.8523 9.07325 24.9365 
14066 0 3 32.2342 11.2545 28.6092 
8493 0 3 32.7674 13.1237 1.97413 
13534 0 3 29.971 13.4676 1.87284 
9032 0 3 28.2647 11.9865 3.20987 
2340 0 3 32.7433 14.5377 4.12118 
14126 0 3 28.3789 16.1058 2.91622 
20389 0 3 30.0864 12.9398 4.70597 
211 0 3 29.5313 15.1404 6.9388 
20776 0 3 31.0114 13.9745 6.85443 
9284 0 3 28.7633 15.8877 7.29904 
16513 0 3 30.1249 16.851 7.3734 
14215 0 3 32.1592 16.1583 7.7323 
23857 0 3 29.8192 12.9876 8.418 
8229 0 3 31.7632 12.6674 8.17343 
14698 0 3 29.4712 12.7363 10.3679 
20192 0 3 31.9289 12.7817 9.77341 
1234 0 3 30.9297 14.7791 10.0119 
19075 0 3 32.7922 12.42 12.7158 
4274 0 3 32.6397 15.8932 11.7592 
18073 0 3 32.8875 16.6011 19.6282 
9596 0 3 32.0214 14.429 25.2179 
9717 0 3 29.9428 16.3252 27.1325 
24430 0 3 32.7542 15.2654 27.2295 
8409 0 3 29.4745 13.9639 33.2962 
4491 0 3 30.3996 14.2898 32.7056 
16427 0 3 30.1259 22.0995 2.29289 
15183 0 3 28.5829 17.0637 3.5304 
1235 0 3 30.0784 18.7302 3.71456 
8556 0 3 31.2766 18.8267 5.83124 
6110 0 3 29.5009 22.3817 5.33234 
22752 0 3 32.6723 22.1579 6.94739 
19016 0 3 28.7701 19.8056 15.6238 
1049 0 3 32.9293 17.1851 20.5062 
5345 0 3 28.2238 22.1698 19.5825 
5337 0 3 28.6805 17.0764 22.2977 
22265 0 3 29.9544 20.1784 20.7856 
21573 0 3 32.1709 19.5764 20.6931 
25338 0 3 33.099 21.3733 22.0764 
14047 0 3 29.5115 17.7986 23.2387 
25283 0 3 28.473 19.5269 24.0966 
22400 0 3 32.5428 20.5564 23.1118 
19037 0 3 30.0844 20.5432 25.8889 
11580 0 3 30.1622 19.6875 27.8756 
8280 0 3 32.2994 20.9221 28.435 
14166 0 3 30.924 20.8092 31.155 
6605 0 3 28.441 18.0921 32.7776 
15010 0 3 32.1315 18.3709 31.9937 
17431 0 3 29.1964 25.6657 2.0519 
18576 0 3 31.3355 25.9711 2.32667 
10 0 3 30.8443 26.4093 1.42184 
3402 0 3 28.8189 24.89 3.08658 
16157 0 3 32.3021 25.0923 2.71286 
7974 0 3 30.6716 26.2218 5.80158 
15156 0 3 28.5801 23.5102 7.84146 
10754 0 3 30.5014 25.7662 6.9287 
19133 0 3 28.628 26.4319 6.1884 
18660 0 3 30.9744 27.4198 9.22288 
26840 0 3 30.0373 27.7427 11.4667 
18426 0 3 29.7601 25.4901 14.3446 
16697 0 3 32.4034 27.1403 15.8829 
21649 0 3 31.3721 23.2312 19.9938 
20741 0 3 30.1286 26.5653 20.566 
11471 0 3 32.1043 27.21 20.5234 
7960 0 3 30.6891 24.0106 20.7151 
19383 0 3 29.0584 22.7048 23.6708 
7787 0 3 32.5788 24.4786 22.4758 
11288 0 3 29.6025 26.761 23.0286 