ITEM: TIMESTEP
0
ITEM: NUMBER OF ATOMS
900
ITEM: BOX BOUNDS pp pp pp
0.0000000000000000e+00 3.4000000000000000e+01
0.0000000000000000e+00 3.4000000000000000e+01
0.0000000000000000e+00 3.4000000000000000e+01
ITEM: ATOMS id mol type x y z 
2 0 3 0.5 1.6 0.5 
2704 0 3 0.5 3.8 3.5 
6419 0 3 3.8 1.6 7.5 
8102 0 3 0.5 1.6 9.5 
10923 0 3 4.9 2.7 12.5 
10856 0 3 1.6 4.9 12.5 
11757 0 3 1.6 3.8 13.5 
11756 0 3 1.6 4.9 13.5 
12723 0 3 4.9 2.7 14.5 
14402 0 3 0.5 1.6 16.5 
14404 0 3 0.5 3.8 16.5 
15416 0 3 3.8 4.9 17.5 
17160 0 3 1.6 0.5 19.5 
18957 0 3 1.6 3.8 21.5 
19016 0 3 3.8 4.9 21.5 
21601 0 3 0.5 0.5 24.5 
23521 0 3 4.9 0.5 26.5 
10 0 3 0.5 10.4 0.5 
968 0 3 2.7 8.2 1.5 
3607 0 3 0.5 7.1 4.5 
3667 0 3 2.7 7.1 4.5 
5452 0 3 1.6 9.3 6.5 
5469 0 3 2.7 9.3 6.5 
6367 0 3 2.7 7.1 7.5 
6414 0 3 3.8 7.1 7.5 
8166 0 3 2.7 6 9.5 
8169 0 3 2.7 9.3 9.5 
8229 0 3 4.9 9.3 9.5 
9053 0 3 1.6 8.2 10.5 
9966 0 3 2.7 6 11.5 
9967 0 3 2.7 7.1 11.5 
10868 0 3 2.7 8.2 12.5 
11815 0 3 3.8 6 13.5 
11826 0 3 4.9 6 13.5 
12714 0 3 3.8 7.1 14.5 
14409 0 3 0.5 9.3 16.5 
15307 0 3 0.5 7.1 17.5 
16208 0 3 0.5 8.2 18.5 
17211 0 3 3.8 10.4 19.5 
18968 0 3 2.7 8.2 21.5 
20768 0 3 2.7 8.2 23.5 
21667 0 3 2.7 7.1 24.5 
21728 0 3 4.9 8.2 24.5 
21652 0 3 1.6 9.3 24.5 
24430 0 3 4.9 10.4 27.5 
25328 0 3 4.9 8.2 28.5 
25329 0 3 4.9 9.3 28.5 
26213 0 3 3.8 8.2 29.5 
26211 0 3 3.8 10.4 29.5 
50 0 3 1.6 11.5 0.5 
1812 0 3 0.5 12.6 2.5 
2711 0 3 0.5 11.5 3.5 
4606 0 3 3.8 15.9 5.5 
5472 0 3 2.7 12.6 6.5 
5533 0 3 4.9 13.7 6.5 
5414 0 3 0.5 14.8 6.5 
6372 0 3 2.7 12.6 7.5 
7249 0 3 1.6 12.6 8.5 
7309 0 3 3.8 12.6 8.5 
9047 0 3 1.6 14.8 10.5 
11713 0 3 0.5 13.7 13.5 
11747 0 3 1.6 14.8 13.5 
12710 0 3 3.8 11.5 14.5 
14475 0 3 2.7 15.9 16.5 
15372 0 3 2.7 12.6 17.5 
15373 0 3 2.7 13.7 17.5 
15315 0 3 0.5 15.9 17.5 
18073 0 3 2.7 13.7 20.5 
19032 0 3 4.9 12.6 21.5 
19873 0 3 2.7 13.7 22.5 
21649 0 3 1.6 12.6 24.5 
22609 0 3 3.8 12.6 25.5 
23471 0 3 2.7 11.5 26.5 
23412 0 3 0.5 12.6 26.5 
24350 0 3 1.6 11.5 27.5 
26111 0 3 0.5 11.5 29.5 
101 0 3 3.8 21.4 0.5 
141 0 3 4.9 22.5 0.5 
1038 0 3 4.9 19.2 1.5 
2838 0 3 4.9 19.2 3.5 
3621 0 3 0.5 22.5 4.5 
4605 0 3 3.8 17 5.5 
6319 0 3 0.5 20.3 7.5 
12677 0 3 2.7 18.1 14.5 
12701 0 3 3.8 21.4 14.5 
13542 0 3 1.6 20.3 15.5 
13521 0 3 0.5 22.5 15.5 
15316 0 3 0.5 17 17.5 
15436 0 3 4.9 17 17.5 
15317 0 3 0.5 18.1 17.5 
16219 0 3 0.5 20.3 18.5 
17204 0 3 3.8 18.1 19.5 
18104 0 3 3.8 18.1 20.5 
18019 0 3 0.5 20.3 20.5 
18042 0 3 1.6 20.3 20.5 
19037 0 3 4.9 18.1 21.5 
18918 0 3 0.5 19.2 21.5 
18978 0 3 2.7 19.2 21.5 
19000 0 3 3.8 22.5 21.5 
20776 0 3 2.7 17 23.5 
20741 0 3 1.6 21.4 23.5 
21677 0 3 2.7 18.1 24.5 
21680 0 3 2.7 21.4 24.5 
22603 0 3 3.8 19.2 25.5 
23479 0 3 2.7 20.3 26.5 
23481 0 3 2.7 22.5 26.5 
25217 0 3 0.5 18.1 28.5 
25338 0 3 4.9 19.2 28.5 
25219 0 3 0.5 20.3 28.5 
146 0 3 4.9 28 0.5 
1043 0 3 4.9 24.7 1.5 
1882 0 3 2.7 23.6 2.5 
1824 0 3 0.5 25.8 2.5 
2722 0 3 0.5 23.6 3.5 
2725 0 3 0.5 26.9 3.5 
3686 0 3 2.7 28 4.5 
6383 0 3 2.7 24.7 7.5 
8136 0 3 1.6 26.9 9.5 
9039 0 3 1.6 23.6 10.5 
9938 0 3 1.6 24.7 11.5 
10897 0 3 3.8 25.8 12.5 
12696 0 3 3.8 26.9 14.5 
13539 0 3 1.6 23.6 15.5 
13586 0 3 2.7 28 15.5 
14425 0 3 0.5 26.9 16.5 
18095 0 3 3.8 28 20.5 
18937 0 3 1.6 25.8 21.5 
20845 0 3 4.9 26.9 23.5 
22598 0 3 3.8 24.7 25.5 
22597 0 3 3.8 25.8 25.5 
23424 0 3 0.5 25.8 26.5 
25283 0 3 2.7 24.7 28.5 
25298 0 3 3.8 24.7 28.5 
25297 0 3 3.8 25.8 28.5 
25345 0 3 4.9 26.9 28.5 
26244 0 3 4.9 25.8 29.5 
1049 0 3 4.9 31.3 1.5 
2847 0 3 4.9 29.1 3.5 
2848 0 3 4.9 30.2 3.5 
3747 0 3 4.9 29.1 4.5 
6392 0 3 3.8 31.3 7.5 
7347 0 3 4.9 29.1 8.5 
7229 0 3 0.5 31.3 8.5 
7289 0 3 2.7 31.3 8.5 
9094 0 3 3.8 29.1 10.5 
9032 0 3 1.6 31.3 10.5 
9929 0 3 0.5 31.3 11.5 
12634 0 3 1.6 29.1 14.5 
13534 0 3 1.6 29.1 15.5 
13594 0 3 3.8 29.1 15.5 
13590 0 3 2.7 32.4 15.5 
15327 0 3 0.5 29.1 17.5 
16350 0 3 4.9 32.4 18.5 
18093 0 3 3.8 30.2 20.5 
18031 0 3 1.6 32.4 20.5 
19050 0 3 4.9 32.4 21.5 
19887 0 3 2.7 29.1 22.5 
25347 0 3 4.9 29.1 28.5 
26247 0 3 4.9 29.1 29.5 
180 0 3 6 0.5 0.5 
1200 0 3 10.4 0.5 1.5 
1982 0 3 7.1 1.6 2.5 
2999 0 3 10.4 1.6 3.5 
3898 0 3 10.4 2.7 4.5 
6541 0 3 9.3 0.5 7.5 
7441 0 3 9.3 0.5 8.5 
8280 0 3 6 0.5 9.5 
8339 0 3 8.2 1.6 9.5 
9238 0 3 8.2 2.7 10.5 
10143 0 3 9.3 2.7 11.5 
10137 0 3 8.2 3.8 11.5 
10144 0 3 9.3 3.8 11.5 
11099 0 3 10.4 1.6 12.5 
12784 0 3 7.1 3.8 14.5 
12785 0 3 7.1 4.9 14.5 
14698 0 3 10.4 2.7 16.5 
16442 0 3 9.3 1.6 18.5 
17282 0 3 7.1 1.6 19.5 
17284 0 3 7.1 3.8 19.5 
19084 0 3 7.1 3.8 21.5 
20041 0 3 9.3 0.5 22.5 
20097 0 3 10.4 3.8 22.5 
20938 0 3 8.2 2.7 23.5 
20998 0 3 10.4 2.7 23.5 
21784 0 3 7.1 3.8 24.5 
21845 0 3 9.3 4.9 24.5 
22796 0 3 10.4 4.9 25.5 
24538 0 3 8.2 2.7 27.5 
24545 0 3 9.3 4.9 27.5 
25379 0 3 6 1.6 28.5 
26338 0 3 8.2 2.7 29.5 
26398 0 3 10.4 2.7 29.5 
190 0 3 7.1 10.4 0.5 
291 0 3 10.4 10.4 0.5 
1134 0 3 8.2 7.1 1.5 
1974 0 3 6 7.1 2.5 
1972 0 3 6 9.3 2.5 
3773 0 3 6 8.2 4.5 
3771 0 3 6 10.4 4.5 
8333 0 3 8.2 8.2 9.5 
11946 0 3 9.3 6 13.5 
11933 0 3 8.2 8.2 13.5 
11950 0 3 9.3 10.4 13.5 
13675 0 3 6 6 15.5 
15535 0 3 8.2 6 17.5 
15534 0 3 8.2 7.1 17.5 
18248 0 3 9.3 8.2 20.5 
19075 0 3 6 6 21.5 
19135 0 3 8.2 6 21.5 
19134 0 3 8.2 7.1 21.5 
19133 0 3 8.2 8.2 21.5 
19148 0 3 9.3 8.2 21.5 
19193 0 3 10.4 8.2 21.5 
19071 0 3 6 10.4 21.5 
19973 0 3 6 8.2 22.5 
20048 0 3 9.3 8.2 22.5 
20031 0 3 8.2 10.4 22.5 
20947 0 3 9.3 7.1 23.5 
20889 0 3 7.1 9.3 23.5 
23575 0 3 6 6 26.5 
26335 0 3 8.2 6 29.5 
26393 0 3 10.4 8.2 29.5 
1190 0 3 10.4 11.5 1.5 
1067 0 3 6 14.8 1.5 
3767 0 3 6 14.8 4.5 
3794 0 3 7.1 14.8 4.5 
4730 0 3 8.2 11.5 5.5 
4729 0 3 8.2 12.6 5.5 
7486 0 3 10.4 15.9 8.5 
8326 0 3 8.2 15.9 9.5 
10091 0 3 7.1 11.5 11.5 
10094 0 3 7.1 14.8 11.5 
10969 0 3 6 12.6 12.5 
11028 0 3 8.2 13.7 12.5 
13787 0 3 10.4 14.8 15.5 
16451 0 3 9.3 11.5 18.5 
16367 0 3 6 14.8 18.5 
16427 0 3 8.2 14.8 18.5 
17330 0 3 8.2 11.5 19.5 
19092 0 3 7.1 12.6 21.5 
20028 0 3 8.2 13.7 22.5 
20027 0 3 8.2 14.8 22.5 
20054 0 3 9.3 14.8 22.5 
20930 0 3 8.2 11.5 23.5 
21830 0 3 8.2 11.5 24.5 
21766 0 3 6 15.9 24.5 
22752 0 3 9.3 12.6 25.5 
22788 0 3 10.4 13.7 25.5 
24467 0 3 6 14.8 27.5 
24555 0 3 9.3 15.9 27.5 
26329 0 3 8.2 12.6 29.5 
26267 0 3 6 14.8 29.5 
2060 0 3 9.3 21.4 2.5 
2897 0 3 7.1 18.1 3.5 
3799 0 3 7.1 20.3 4.5 
3820 0 3 8.2 22.5 4.5 
4665 0 3 6 17 5.5 
4664 0 3 6 18.1 5.5 
4662 0 3 6 20.3 5.5 
5683 0 3 10.4 19.2 6.5 
5621 0 3 8.2 21.4 6.5 
9284 0 3 10.4 18.1 10.5 
9260 0 3 9.3 21.4 10.5 
10120 0 3 8.2 22.5 11.5 
12821 0 3 8.2 21.4 14.5 
14624 0 3 8.2 18.1 16.5 
16422 0 3 8.2 20.3 18.5 
17324 0 3 8.2 18.1 19.5 
20956 0 3 9.3 17 23.5 
21765 0 3 6 17 24.5 
23623 0 3 8.2 19.2 26.5 
24561 0 3 9.3 22.5 27.5 
25360 0 3 6 22.5 28.5 
26383 0 3 10.4 19.2 29.5 
26381 0 3 10.4 21.4 29.5 
202 0 3 7.1 23.6 0.5 
1118 0 3 8.2 24.7 1.5 
3759 0 3 6 23.6 4.5 
8364 0 3 9.3 25.8 9.5 
8316 0 3 8.2 26.9 9.5 
10103 0 3 7.1 24.7 11.5 
10104 0 3 7.1 25.8 11.5 
10166 0 3 9.3 28 11.5 
11902 0 3 7.1 23.6 13.5 
11964 0 3 9.3 25.8 13.5 
13777 0 3 10.4 25.8 15.5 
15564 0 3 9.3 25.8 17.5 
16462 0 3 9.3 23.6 18.5 
17362 0 3 9.3 23.6 19.5 
17318 0 3 8.2 24.7 19.5 
19165 0 3 9.3 26.9 21.5 
21816 0 3 8.2 26.9 24.5 
26377 0 3 10.4 25.8 29.5 
211 0 3 8.2 32.4 0.5 
1107 0 3 7.1 29.1 1.5 
2074 0 3 10.4 29.1 2.5 
2967 0 3 9.3 29.1 3.5 
3814 0 3 8.2 29.1 4.5 
3812 0 3 8.2 31.3 4.5 
4709 0 3 7.1 31.3 5.5 
6514 0 3 8.2 29.1 7.5 
8367 0 3 9.3 29.1 9.5 
9272 0 3 10.4 31.3 10.5 
10112 0 3 8.2 31.3 11.5 
13769 0 3 9.3 31.3 15.5 
15453 0 3 6 30.2 17.5 
15451 0 3 6 32.4 17.5 
17254 0 3 6 29.1 19.5 
17314 0 3 8.2 29.1 19.5 
17368 0 3 9.3 30.2 19.5 
19173 0 3 10.4 30.2 21.5 
19170 0 3 9.3 32.4 21.5 
20913 0 3 8.2 30.2 23.5 
20911 0 3 8.2 32.4 23.5 
21869 0 3 9.3 31.3 24.5 
26368 0 3 9.3 30.2 29.5 
26373 0 3 10.4 30.2 29.5 
302 0 3 11.5 1.6 0.5 
2216 0 3 14.8 4.9 2.5 
6723 0 3 15.9 2.7 7.5 
6605 0 3 11.5 4.9 7.5 
6656 0 3 12.6 4.9 7.5 
7563 0 3 13.7 2.7 8.5 
8517 0 3 14.8 3.8 9.5 
10325 0 3 15.9 4.9 11.5 
12118 0 3 14.8 2.7 13.5 
12957 0 3 12.6 3.8 14.5 
17525 0 3 15.9 4.9 19.5 
18424 0 3 15.9 3.8 20.5 
18305 0 3 11.5 4.9 20.5 
19322 0 3 15.9 1.6 21.5 
20224 0 3 15.9 3.8 22.5 
21121 0 3 15.9 0.5 23.5 
21065 0 3 13.7 4.9 23.5 
22021 0 3 15.9 0.5 24.5 
21904 0 3 11.5 3.8 24.5 
22024 0 3 15.9 3.8 24.5 
23825 0 3 15.9 4.9 26.5 
25622 0 3 15.9 1.6 28.5 
2215 0 3 14.8 6 2.5 
2212 0 3 14.8 9.3 2.5 
5766 0 3 13.7 6 6.5 
7627 0 3 15.9 7.1 8.5 
8409 0 3 11.5 9.3 9.5 
9413 0 3 14.8 8.2 10.5 
10330 0 3 15.9 10.4 11.5 
11215 0 3 14.8 6 12.5 
11227 0 3 15.9 7.1 12.5 
14708 0 3 11.5 8.2 16.5 
18426 0 3 15.9 6 20.5 
18427 0 3 15.9 7.1 20.5 
18430 0 3 15.9 10.4 20.5 
19327 0 3 15.9 7.1 21.5 
21967 0 3 13.7 7.1 24.5 
24606 0 3 11.5 6 27.5 
24610 0 3 11.5 10.4 27.5 
25510 0 3 11.5 10.4 28.5 
406 0 3 14.8 15.9 0.5 
1212 0 3 11.5 12.6 1.5 
1213 0 3 11.5 13.7 1.5 
3014 0 3 11.5 14.8 3.5 
3912 0 3 11.5 12.6 4.5 
4871 0 3 13.7 11.5 5.5 
4875 0 3 13.7 15.9 5.5 
5748 0 3 12.6 13.7 6.5 
6647 0 3 12.6 14.8 7.5 
7515 0 3 11.5 15.9 8.5 
8474 0 3 13.7 14.8 9.5 
10214 0 3 11.5 14.8 11.5 
14834 0 3 15.9 14.8 16.5 
15647 0 3 12.6 14.8 17.5 
16513 0 3 11.5 13.7 18.5 
17446 0 3 12.6 15.9 19.5 
18313 0 3 11.5 13.7 20.5 
20210 0 3 14.8 11.5 22.5 
20231 0 3 15.9 11.5 22.5 
23747 0 3 12.6 14.8 26.5 
24649 0 3 12.6 12.6 27.5 
24613 0 3 11.5 13.7 27.5 
25609 0 3 14.8 12.6 28.5 
25573 0 3 13.7 13.7 28.5 
26472 0 3 13.7 12.6 29.5 
26447 0 3 12.6 14.8 29.5 
1245 0 3 12.6 17 1.5 
2202 0 3 14.8 20.3 2.5 
3078 0 3 13.7 19.2 3.5 
3920 0 3 11.5 21.4 4.5 
5779 0 3 13.7 20.3 6.5 
5781 0 3 13.7 22.5 6.5 
6616 0 3 11.5 17 7.5 
7581 0 3 13.7 22.5 8.5 
8445 0 3 12.6 17 9.5 
11117 0 3 11.5 18.1 12.5 
12105 0 3 14.8 17 13.5 
12077 0 3 13.7 18.1 13.5 
12919 0 3 11.5 20.3 14.5 
13821 0 3 11.5 22.5 15.5 
15640 0 3 12.6 22.5 17.5 
15681 0 3 13.7 22.5 17.5 
17419 0 3 11.5 20.3 19.5 
17420 0 3 11.5 21.4 19.5 
17540 0 3 15.9 21.4 19.5 
18377 0 3 13.7 18.1 20.5 
18318 0 3 11.5 19.2 20.5 
18379 0 3 13.7 20.3 20.5 
18340 0 3 12.6 22.5 20.5 
18441 0 3 15.9 22.5 20.5 
19219 0 3 11.5 20.3 21.5 
19340 0 3 15.9 21.4 21.5 
20240 0 3 15.9 21.4 22.5 
21042 0 3 12.6 20.3 23.5 
21102 0 3 14.8 20.3 23.5 
22816 0 3 11.5 17 25.5 
24641 0 3 12.6 21.4 27.5 
25604 0 3 14.8 18.1 28.5 
25521 0 3 11.5 22.5 28.5 
1235 0 3 12.6 28 1.5 
1295 0 3 14.8 28 1.5 
2123 0 3 11.5 24.7 2.5 
2198 0 3 14.8 24.7 2.5 
3026 0 3 11.5 28 3.5 
5783 0 3 13.7 24.7 6.5 
5845 0 3 15.9 26.9 6.5 
6638 0 3 12.6 24.7 7.5 
7523 0 3 11.5 24.7 8.5 
8439 0 3 12.6 23.6 9.5 
8426 0 3 11.5 28 9.5 
8486 0 3 13.7 28 9.5 
9383 0 3 13.7 24.7 10.5 
11244 0 3 15.9 25.8 12.5 
12924 0 3 11.5 25.8 14.5 
12935 0 3 12.6 28 14.5 
15686 0 3 13.7 28 17.5 
18386 0 3 13.7 28 20.5 
18446 0 3 15.9 28 20.5 
21022 0 3 11.5 23.6 23.5 
21037 0 3 12.6 25.8 23.5 
21938 0 3 12.6 24.7 24.5 
21935 0 3 12.6 28 24.5 
25586 0 3 13.7 28 28.5 
26497 0 3 14.8 25.8 29.5 
1234 0 3 12.6 29.1 1.5 
3032 0 3 12.6 31.3 3.5 
3930 0 3 11.5 32.4 4.5 
5787 0 3 13.7 29.1 6.5 
5790 0 3 13.7 32.4 6.5 
7647 0 3 15.9 29.1 8.5 
8493 0 3 14.8 30.2 9.5 
9328 0 3 11.5 30.2 10.5 
9391 0 3 14.8 32.4 10.5 
11132 0 3 12.6 31.3 12.5 
11130 0 3 11.5 32.4 12.5 
12088 0 3 13.7 30.2 13.5 
12993 0 3 14.8 30.2 14.5 
15690 0 3 13.7 32.4 17.5 
17431 0 3 12.6 32.4 19.5 
20134 0 3 12.6 29.1 22.5 
20187 0 3 13.7 29.1 22.5 
20192 0 3 14.8 31.3 22.5 
21934 0 3 12.6 29.1 24.5 
22827 0 3 11.5 29.1 25.5 
23734 0 3 12.6 29.1 26.5 
541 0 3 20.3 0.5 0.5 
602 0 3 22.5 1.6 0.5 
1502 0 3 22.5 1.6 1.5 
2340 0 3 19.2 0.5 2.5 
2337 0 3 19.2 3.8 2.5 
5105 0 3 22.5 4.9 5.5 
5940 0 3 19.2 0.5 6.5 
6779 0 3 17 1.6 7.5 
7803 0 3 22.5 2.7 8.5 
9597 0 3 21.4 3.8 10.5 
9596 0 3 21.4 4.9 10.5 
10383 0 3 18.1 2.7 11.5 
14039 0 3 19.2 1.6 15.5 
15838 0 3 19.2 2.7 17.5 
15904 0 3 22.5 3.8 17.5 
16676 0 3 17 4.9 18.5 
17581 0 3 18.1 0.5 19.5 
17698 0 3 21.4 2.7 19.5 
19381 0 3 18.1 0.5 21.5 
19382 0 3 18.1 1.6 21.5 
19383 0 3 18.1 2.7 21.5 
19384 0 3 18.1 3.8 21.5 
20341 0 3 20.3 0.5 22.5 
20345 0 3 20.3 4.9 22.5 
24904 0 3 22.5 3.8 27.5 
26581 0 3 18.1 0.5 29.5 
546 0 3 20.3 6 0.5 
4089 0 3 18.1 9.3 4.5 
5048 0 3 20.3 8.2 5.5 
7808 0 3 22.5 8.2 8.5 
7810 0 3 22.5 10.4 8.5 
8646 0 3 20.3 6 9.5 
8631 0 3 19.2 10.4 9.5 
9593 0 3 21.4 8.2 10.5 
11335 0 3 19.2 6 12.5 
11288 0 3 18.1 8.2 12.5 
14047 0 3 20.3 7.1 15.5 
14931 0 3 19.2 10.4 16.5 
15010 0 3 22.5 10.4 16.5 
16673 0 3 17 8.2 18.5 
16672 0 3 17 9.3 18.5 
17572 0 3 17 9.3 19.5 
17590 0 3 18.1 10.4 19.5 
19448 0 3 20.3 8.2 21.5 
19492 0 3 21.4 9.3 21.5 
19450 0 3 20.3 10.4 21.5 
20408 0 3 22.5 8.2 22.5 
21306 0 3 22.5 6 23.5 
21294 0 3 21.4 7.1 23.5 
23050 0 3 20.3 10.4 25.5 
23110 0 3 22.5 10.4 25.5 
1514 0 3 22.5 14.8 1.5 
3313 0 3 22.5 13.7 3.5 
4215 0 3 22.5 15.9 4.5 
6886 0 3 21.4 15.9 7.5 
7787 0 3 21.4 14.8 8.5 
8592 0 3 18.1 12.6 9.5 
8712 0 3 22.5 12.6 9.5 
9614 0 3 22.5 14.8 10.5 
10429 0 3 19.2 12.6 11.5 
11267 0 3 17 14.8 12.5 
11266 0 3 17 15.9 12.5 
12311 0 3 22.5 11.5 13.5 
15794 0 3 18.1 14.8 17.5 
18494 0 3 18.1 14.8 20.5 
20389 0 3 21.4 12.6 22.5 
21193 0 3 18.1 13.7 23.5 
22992 0 3 18.1 12.6 25.5 
22968 0 3 17 13.7 25.5 
23988 0 3 21.4 13.7 26.5 
26714 0 3 22.5 14.8 29.5 
1516 0 3 22.5 17 1.5 
2322 0 3 19.2 20.3 2.5 
4216 0 3 22.5 17 4.5 
4098 0 3 18.1 19.2 4.5 
4181 0 3 21.4 21.4 4.5 
5083 0 3 21.4 19.2 5.5 
5061 0 3 20.3 22.5 5.5 
5900 0 3 18.1 21.4 6.5 
6823 0 3 19.2 19.2 7.5 
7819 0 3 22.5 20.3 8.5 
7720 0 3 19.2 22.5 8.5 
8624 0 3 19.2 18.1 9.5 
8719 0 3 22.5 20.3 9.5 
9582 0 3 21.4 20.3 10.5 
10424 0 3 19.2 18.1 11.5 
10520 0 3 22.5 21.4 11.5 
11356 0 3 20.3 17 12.5 
11262 0 3 17 20.3 12.5 
11359 0 3 20.3 20.3 12.5 
11381 0 3 21.4 21.4 12.5 
12256 0 3 20.3 17 13.5 
12319 0 3 22.5 20.3 13.5 
12261 0 3 20.3 22.5 13.5 
13101 0 3 18.1 22.5 14.5 
14119 0 3 22.5 20.3 15.5 
14020 0 3 19.2 22.5 15.5 
14925 0 3 19.2 17 16.5 
14958 0 3 20.3 19.2 16.5 
16697 0 3 18.1 18.1 18.5 
16723 0 3 19.2 19.2 18.5 
18584 0 3 21.4 18.1 20.5 
19482 0 3 21.4 20.3 21.5 
21196 0 3 18.1 17 23.5 
23117 0 3 22.5 18.1 25.5 
22963 0 3 17 19.2 25.5 
24881 0 3 21.4 21.4 27.5 
25665 0 3 17 17 28.5 
506 0 3 18.1 28 0.5 
1463 0 3 20.3 24.7 1.5 
4225 0 3 22.5 26.9 4.5 
5123 0 3 22.5 24.7 5.5 
5075 0 3 21.4 28 5.5 
6819 0 3 19.2 23.6 7.5 
7719 0 3 19.2 23.6 8.5 
8603 0 3 18.1 24.7 9.5 
8556 0 3 17 26.9 9.5 
11362 0 3 20.3 23.6 12.5 
11316 0 3 19.2 26.9 12.5 
12219 0 3 19.2 23.6 13.5 
13164 0 3 20.3 25.8 14.5 
14062 0 3 20.3 23.6 15.5 
14124 0 3 22.5 25.8 15.5 
14066 0 3 20.3 28 15.5 
14126 0 3 22.5 28 15.5 
14964 0 3 20.3 25.8 16.5 
15759 0 3 17 23.6 17.5 
15818 0 3 19.2 24.7 17.5 
15805 0 3 18.1 26.9 17.5 
16719 0 3 19.2 23.6 18.5 
16822 0 3 22.5 23.6 18.5 
17679 0 3 21.4 23.6 19.5 
17556 0 3 17 26.9 19.5 
18577 0 3 21.4 25.8 20.5 
18576 0 3 21.4 26.9 20.5 
19404 0 3 18.1 25.8 21.5 
20258 0 3 17 24.7 22.5 
20315 0 3 19.2 28 22.5 
22103 0 3 18.1 24.7 24.5 
23902 0 3 18.1 23.6 26.5 
23857 0 3 17 25.8 26.5 
24803 0 3 18.1 24.7 27.5 
24804 0 3 18.1 25.8 27.5 
24875 0 3 21.4 28 27.5 
25763 0 3 20.3 24.7 28.5 
26675 0 3 21.4 28 29.5 
3154 0 3 17 29.1 3.5 
5009 0 3 18.1 31.3 5.5 
6867 0 3 20.3 29.1 7.5 
7714 0 3 19.2 29.1 8.5 
8670 0 3 20.3 32.4 9.5 
13230 0 3 22.5 32.4 14.5 
14074 0 3 21.4 29.1 15.5 
14129 0 3 22.5 31.3 15.5 
15811 0 3 19.2 32.4 17.5 
16828 0 3 22.5 30.2 18.5 
16769 0 3 20.3 31.3 18.5 
17553 0 3 17 30.2 19.5 
18454 0 3 17 29.1 20.5 
18453 0 3 17 30.2 20.5 
18573 0 3 21.4 30.2 20.5 
18509 0 3 18.1 31.3 20.5 
20309 0 3 18.1 31.3 22.5 
21212 0 3 19.2 31.3 23.5 
26608 0 3 18.1 30.2 29.5 
659 0 3 23.6 1.6 0.5 
2520 0 3 25.8 0.5 2.5 
2517 0 3 25.8 3.8 2.5 
7979 0 3 28 1.6 8.5 
9717 0 3 25.8 3.8 10.5 
10556 0 3 23.6 4.9 11.5 
11580 0 3 28 0.5 12.5 
11524 0 3 26.9 3.8 12.5 
12423 0 3 26.9 2.7 13.5 
13262 0 3 24.7 1.6 14.5 
13377 0 3 28 3.8 14.5 
15058 0 3 23.6 2.7 16.5 
18660 0 3 23.6 0.5 20.5 
18656 0 3 23.6 4.9 20.5 
19558 0 3 23.6 2.7 21.5 
19625 0 3 26.9 4.9 21.5 
20456 0 3 23.6 4.9 22.5 
20516 0 3 25.8 4.9 22.5 
22380 0 3 28 0.5 24.5 
22265 0 3 24.7 4.9 24.5 
22325 0 3 26.9 4.9 24.5 
23220 0 3 25.8 0.5 25.5 
23216 0 3 25.8 4.9 25.5 
24960 0 3 23.6 0.5 27.5 
25977 0 3 28 3.8 28.5 
26880 0 3 28 0.5 29.5 
666 0 3 24.7 6 0.5 
726 0 3 26.9 6 0.5 
2528 0 3 26.9 8.2 2.5 
3471 0 3 28 10.4 3.5 
4373 0 3 28 8.2 4.5 
4329 0 3 26.9 9.3 4.5 
5152 0 3 23.6 9.3 5.5 
5151 0 3 23.6 10.4 5.5 
5170 0 3 24.7 10.4 5.5 
6115 0 3 25.8 6 6.5 
7866 0 3 24.7 6 8.5 
7974 0 3 28 7.1 8.5 
7973 0 3 28 8.2 8.5 
7971 0 3 28 10.4 8.5 
9714 0 3 25.8 7.1 10.5 
9729 0 3 26.9 9.3 10.5 
10673 0 3 28 8.2 11.5 
12367 0 3 24.7 7.1 13.5 
14166 0 3 24.7 6 15.5 
14215 0 3 25.8 6 15.5 
15173 0 3 28 8.2 16.5 
16915 0 3 25.8 6 18.5 
19615 0 3 25.8 6 21.5 
20513 0 3 25.8 8.2 22.5 
23166 0 3 24.7 6 25.5 
23214 0 3 25.8 7.1 25.5 
24067 0 3 24.7 7.1 26.5 
24053 0 3 23.6 8.2 26.5 
24966 0 3 24.7 6 27.5 
25073 0 3 28 8.2 27.5 
710 0 3 25.8 11.5 0.5 
672 0 3 24.7 12.6 0.5 
1606 0 3 25.8 15.9 1.5 
4370 0 3 28 11.5 4.5 
4248 0 3 23.6 13.7 4.5 
4274 0 3 24.7 14.8 4.5 
4334 0 3 26.9 14.8 4.5 
4306 0 3 25.8 15.9 4.5 
5173 0 3 24.7 13.7 5.5 
5234 0 3 26.9 14.8 5.5 
6110 0 3 25.8 11.5 6.5 
6075 0 3 24.7 15.9 6.5 
6166 0 3 28 15.9 6.5 
7008 0 3 25.8 13.7 7.5 
7932 0 3 26.9 12.6 8.5 
7874 0 3 24.7 14.8 8.5 
8869 0 3 28 12.6 9.5 
8808 0 3 25.8 13.7 9.5 
11471 0 3 24.7 11.5 12.5 
11533 0 3 26.9 13.7 12.5 
11446 0 3 23.6 15.9 12.5 
12435 0 3 26.9 15.9 13.5 
13272 0 3 24.7 12.6 14.5 
13248 0 3 23.6 13.7 14.5 
14208 0 3 25.8 13.7 15.5 
14206 0 3 25.8 15.9 15.5 
14235 0 3 26.9 15.9 15.5 
15170 0 3 28 11.5 16.5 
15049 0 3 23.6 12.6 16.5 
16069 0 3 28 12.6 17.5 
16008 0 3 25.8 13.7 17.5 
16847 0 3 23.6 14.8 18.5 
16935 0 3 26.9 15.9 18.5 
17808 0 3 25.8 13.7 19.5 
20570 0 3 28 11.5 22.5 
20569 0 3 28 12.6 22.5 
22331 0 3 26.9 11.5 24.5 
23150 0 3 23.6 11.5 25.5 
23149 0 3 23.6 12.6 25.5 
642 0 3 23.6 20.3 0.5 
1580 0 3 24.7 21.4 1.5 
3402 0 3 25.8 20.3 3.5 
4280 0 3 24.7 21.4 4.5 
7960 0 3 28 22.5 8.5 
8741 0 3 23.6 21.4 9.5 
9676 0 3 24.7 17 10.5 
9703 0 3 25.8 19.2 10.5 
10638 0 3 26.9 19.2 11.5 
10600 0 3 25.8 22.5 11.5 
12377 0 3 24.7 18.1 13.5 
13244 0 3 23.6 18.1 14.5 
13281 0 3 24.7 22.5 14.5 
14205 0 3 25.8 17 15.5 
16845 0 3 23.6 17 18.5 
16903 0 3 25.8 19.2 18.5 
17742 0 3 23.6 20.3 19.5 
18741 0 3 26.9 22.5 20.5 
20477 0 3 24.7 18.1 22.5 
21440 0 3 26.9 21.4 23.5 
22338 0 3 26.9 19.2 24.5 
22300 0 3 25.8 22.5 24.5 
23142 0 3 23.6 20.3 25.5 
25062 0 3 28 20.3 27.5 
25937 0 3 26.9 18.1 28.5 
26776 0 3 24.7 17 29.5 
26743 0 3 23.6 19.2 29.5 
26840 0 3 26.9 21.4 29.5 
638 0 3 23.6 24.7 0.5 
2545 0 3 26.9 26.9 2.5 
4297 0 3 25.8 25.8 4.5 
4235 0 3 23.6 28 4.5 
5197 0 3 25.8 25.8 5.5 
5196 0 3 25.8 26.9 5.5 
5195 0 3 25.8 28 5.5 
7959 0 3 28 23.6 8.5 
7946 0 3 26.9 28 8.5 
11545 0 3 26.9 26.9 12.5 
12445 0 3 26.9 26.9 13.5 
13235 0 3 23.6 28 14.5 
14256 0 3 28 26.9 15.5 
15156 0 3 28 26.9 16.5 
16836 0 3 23.6 26.9 18.5 
20499 0 3 25.8 23.6 22.5 
20555 0 3 28 28 22.5 
21455 0 3 28 28 23.5 
23184 0 3 24.7 25.8 25.5 
23135 0 3 23.6 28 25.5 
24983 0 3 24.7 24.7 27.5 
24998 0 3 25.8 24.7 27.5 
1594 0 3 25.8 29.1 1.5 
2547 0 3 26.9 29.1 2.5 
9633 0 3 23.6 30.2 10.5 
11547 0 3 26.9 29.1 12.5 
11549 0 3 26.9 31.3 12.5 
12334 0 3 23.6 29.1 13.5 
18747 0 3 26.9 29.1 20.5 
18749 0 3 26.9 31.3 20.5 
21388 0 3 24.7 30.2 23.5 
21453 0 3 28 30.2 23.5 
22293 0 3 25.8 30.2 24.5 
23253 0 3 28 30.2 25.5 
24150 0 3 26.9 32.4 26.5 
25048 0 3 26.9 30.2 27.5 
839 0 3 30.2 1.6 0.5 
5337 0 3 30.2 3.8 5.5 
5345 0 3 31.3 4.9 5.5 
6299 0 3 32.4 1.6 6.5 
7984 0 3 29.1 3.8 8.5 
10799 0 3 32.4 1.6 11.5 
11583 0 3 29.1 2.7 12.5 
11584 0 3 29.1 3.8 12.5 
12542 0 3 31.3 1.6 13.5 
14343 0 3 31.3 2.7 15.5 
15183 0 3 29.1 2.7 16.5 
16084 0 3 29.1 3.8 17.5 
18841 0 3 31.3 0.5 20.5 
20585 0 3 29.1 4.9 22.5 
21482 0 3 29.1 1.6 23.5 
21598 0 3 32.4 2.7 23.5 
25081 0 3 29.1 0.5 27.5 
26099 0 3 32.4 1.6 28.5 
26938 0 3 30.2 2.7 29.5 
834 0 3 30.2 7.1 0.5 
894 0 3 32.4 7.1 0.5 
3593 0 3 32.4 8.2 3.5 
4491 0 3 32.4 10.4 4.5 
6293 0 3 32.4 8.2 6.5 
10794 0 3 32.4 7.1 11.5 
11695 0 3 32.4 6 12.5 
11588 0 3 29.1 8.2 12.5 
12594 0 3 32.4 7.1 13.5 
13386 0 3 29.1 6 14.5 
13390 0 3 29.1 10.4 14.5 
14349 0 3 31.3 9.3 15.5 
17889 0 3 29.1 9.3 19.5 
18895 0 3 32.4 6 20.5 
21595 0 3 32.4 6 23.5 
22390 0 3 29.1 10.4 24.5 
23395 0 3 32.4 6 25.5 
23334 0 3 30.2 7.1 25.5 
23348 0 3 31.3 8.2 25.5 
1728 0 3 30.2 13.7 1.5 
4489 0 3 32.4 12.6 4.5 
10754 0 3 31.3 14.8 11.5 
11629 0 3 30.2 12.6 12.5 
11687 0 3 32.4 14.8 12.5 
14326 0 3 30.2 15.9 15.5 
19730 0 3 30.2 11.5 21.5 
19727 0 3 30.2 14.8 21.5 
19786 0 3 32.4 15.9 21.5 
22454 0 3 31.3 14.8 24.5 
23389 0 3 32.4 12.6 25.5 
24286 0 3 32.4 15.9 26.5 
26030 0 3 30.2 11.5 28.5 
26089 0 3 32.4 12.6 28.5 
26953 0 3 31.3 13.7 29.5 
883 0 3 32.4 19.2 0.5 
861 0 3 31.3 22.5 0.5 
1723 0 3 30.2 19.2 1.5 
2598 0 3 29.1 19.2 2.5 
2661 0 3 31.3 22.5 2.5 
3583 0 3 32.4 19.2 3.5 
5300 0 3 29.1 21.4 5.5 
8000 0 3 29.1 21.4 8.5 
8985 0 3 32.4 17 9.5 
9798 0 3 29.1 19.2 10.5 
12557 0 3 31.3 18.1 13.5 
13461 0 3 31.3 22.5 14.5 
14324 0 3 30.2 18.1 15.5 
14320 0 3 30.2 22.5 15.5 
16157 0 3 31.3 18.1 17.5 
17056 0 3 31.3 17 18.5 
17924 0 3 30.2 18.1 19.5 
17899 0 3 29.1 20.3 19.5 
20684 0 3 32.4 18.1 22.5 
21584 0 3 32.4 18.1 23.5 
21522 0 3 30.2 20.3 23.5 
22458 0 3 31.3 19.2 24.5 
22400 0 3 29.1 21.4 24.5 
23384 0 3 32.4 18.1 25.5 
23322 0 3 30.2 20.3 25.5 
24198 0 3 29.1 19.2 26.5 
26081 0 3 32.4 21.4 28.5 
26985 0 3 32.4 17 29.5 
2662 0 3 31.3 23.6 2.5 
2663 0 3 31.3 24.7 2.5 
4479 0 3 32.4 23.6 4.5 
7117 0 3 30.2 25.8 7.5 
7106 0 3 29.1 28 7.5 
13478 0 3 32.4 24.7 14.5 
16119 0 3 30.2 23.6 17.5 
16118 0 3 30.2 24.7 17.5 
17975 0 3 32.4 28 19.5 
19766 0 3 31.3 28 21.5 
20602 0 3 29.1 23.6 22.5 
21576 0 3 32.4 26.9 23.5 
23362 0 3 31.3 23.6 25.5 
24206 0 3 29.1 28 26.5 
24215 0 3 30.2 28 26.5 
814 0 3 30.2 29.1 0.5 
869 0 3 31.3 31.3 0.5 
2670 0 3 31.3 32.4 2.5 
8012 0 3 30.2 31.3 8.5 
8011 0 3 30.2 32.4 8.5 
8967 0 3 31.3 29.1 9.5 
9808 0 3 29.1 30.2 10.5 
15267 0 3 31.3 29.1 16.5 
15274 0 3 32.4 29.1 16.5 
16107 0 3 29.1 29.1 17.5 
16174 0 3 32.4 29.1 17.5 
20674 0 3 32.4 29.1 22.5 
21573 0 3 32.4 30.2 23.5 
22469 0 3 31.3 31.3 24.5 
23370 0 3 31.3 32.4 25.5 
25114 0 3 30.2 29.1 27.5 
25108 0 3 29.1 30.2 27.5 
26970 0 3 31.3 32.4 29.5 
ITEM: TIMESTEP
100000
ITEM: NUMBER OF ATOMS
900
ITEM: BOX BOUNDS pp pp pp
0.0000000000000000e+00 3.4000000000000000e+01
0.0000000000000000e+00 3.4000000000000000e+01
0.0000000000000000e+00 3.4000000000000000e+01
ITEM: ATOMS id mol type x y z 
3621 0 3 2.26782 0.737682 2.62648 
5337 0 3 0.81045 2.81836 6.59856 
5345 0 3 0.622568 3.40558 7.80967 
11826 0 3 2.35171 4.47145 7.66362 
10856 0 3 0.951936 1.19877 9.23878 
11588 0 3 2.92676 2.00068 8.99046 
12423 0 3 0.674097 2.59073 10.73 
9094 0 3 2.70682 0.655065 12.3646 
8011 0 3 0.0310225 2.06626 12.3969 
12714 0 3 2.81427 4.66406 15.7408 
19084 0 3 2.18095 3.5414 19.9267 
19016 0 3 4.97827 2.3289 24.3254 
24350 0 3 5.2868 3.64675 24.2019 
21869 0 3 4.56125 4.68407 25.0902 
25283 0 3 1.37887 0.432341 25.6786 
21455 0 3 0.531183 4.49488 26.2725 
26111 0 3 0.392861 0.439693 26.4715 
25114 0 3 5.55506 0.478052 29.4731 
24215 0 3 4.03381 2.32618 30.9156 
19075 0 3 4.37574 5.46088 31.1664 
25379 0 3 0.956 1.16853 32.4422 
25347 0 3 4.57469 3.01219 33.8875 
2711 0 3 2.56967 10.3677 1.1263 
6299 0 3 0.700484 5.88071 5.95482 
8166 0 3 3.90199 5.93723 6.54194 
9053 0 3 2.2534 9.40497 7.2908 
11747 0 3 1.81758 5.70047 8.02123 
7229 0 3 3.34561 11.1741 7.5777 
10091 0 3 0.107266 6.97967 9.54414 
10868 0 3 0.54578 7.49794 12.4964 
11815 0 3 1.83861 7.48288 12.4045 
15373 0 3 2.74043 8.61832 14.5399 
7974 0 3 1.8979 8.93448 15.5145 
14402 0 3 3.14662 5.73726 16.1943 
15173 0 3 2.2258 9.51433 16.6678 
16367 0 3 4.81172 9.46043 18.7555 
15416 0 3 4.08092 10.5257 20.7337 
20570 0 3 3.14812 11.3153 21.1012 
15307 0 3 0.721108 6.945 21.9758 
21595 0 3 0.200825 6.24745 22.7116 
21598 0 3 5.36357 6.02627 24.1143 
22454 0 3 0.356401 9.87389 24.5518 
18895 0 3 2.61633 5.82287 25.1861 
23471 0 3 2.07178 9.0005 25.5933 
25328 0 3 3.66357 9.98222 26.9323 
23334 0 3 0.2666 6.012 27.8358 
1212 0 3 3.79098 10.3662 30.4648 
21728 0 3 5.37628 10.0605 30.7939 
1812 0 3 4.72068 9.63024 33.4236 
26089 0 3 5.15823 14.9372 0.452856 
26211 0 3 4.91221 12.9873 2.75297 
7249 0 3 3.22755 14.4581 1.95216 
1972 0 3 1.05293 15.8587 1.90035 
5414 0 3 3.02282 14.9035 3.01428 
3607 0 3 4.8333 12.4886 5.78733 
8326 0 3 4.60152 13.6999 6.08565 
5452 0 3 1.25058 15.1775 6.09139 
5472 0 3 0.176228 16.8968 6.38599 
5469 0 3 1.54018 12.2065 8.11824 
11713 0 3 0.371789 14.6199 7.74206 
10969 0 3 0.8186 14.285 8.88197 
11028 0 3 3.56867 12.0318 11.613 
15315 0 3 5.10279 16.2151 16.217 
15316 0 3 0.684486 14.6145 17.0886 
14324 0 3 2.68514 15.5821 18.0122 
19730 0 3 1.84812 15.8296 20.6951 
19873 0 3 1.45173 14.0681 21.6824 
22458 0 3 2.17127 16.1442 24.1461 
22603 0 3 2.69431 15.1414 24.9299 
22390 0 3 2.00595 12.9326 26.3977 
20776 0 3 2.54881 13.776 26.0368 
19071 0 3 1.81429 13.1403 29.311 
26953 0 3 5.19394 12.0737 31.8997 
50 0 3 3.22483 13.24 31.4979 
26030 0 3 0.0608197 16.3963 31.4533 
1728 0 3 2.35699 16.8165 31.3428 
1723 0 3 4.38085 18.4408 0.317533 
2897 0 3 2.53225 19.2759 0.255517 
3794 0 3 1.43099 18.6689 1.80578 
4489 0 3 0.374045 20.6644 1.50283 
1824 0 3 1.33843 19.8918 1.0381 
25217 0 3 0.908322 18.7935 2.90408 
6293 0 3 0.409786 17.9159 4.62678 
4491 0 3 2.56095 18.452 4.2338 
8333 0 3 5.00726 20.3496 7.55159 
4605 0 3 3.24818 21.7727 10.3544 
12677 0 3 1.43116 17.3216 11.7416 
9039 0 3 3.30755 20.0798 11.7443 
8439 0 3 3.82591 19.4226 12.5826 
10638 0 3 0.980065 20.5271 12.8636 
14320 0 3 3.52318 22.1885 15.6456 
14256 0 3 0.201469 20.5498 17.6 
18978 0 3 3.61818 17.6275 18.6884 
12701 0 3 0.709149 21.4188 18.5021 
15317 0 3 2.75243 18.3695 19.3703 
18918 0 3 0.769016 18.9314 23.083 
14624 0 3 5.51406 22.6087 23.9683 
19786 0 3 0.107466 17.2324 26.2596 
25219 0 3 3.94022 20.3408 26.0377 
21576 0 3 0.109927 21.8994 26.7725 
23479 0 3 4.98188 18.048 27.5237 
23384 0 3 1.33189 20.1588 28.6536 
3593 0 3 0.724901 18.4629 30.2969 
141 0 3 3.65652 21.9591 31.6995 
1038 0 3 3.82294 22.2979 32.8052 
10 0 3 5.12932 20.4066 33.6373 
4665 0 3 1.34227 26.8663 7.59891 
5621 0 3 2.40665 25.1695 10.113 
11580 0 3 4.04615 26.2623 11.0602 
5300 0 3 2.39433 24.9668 12.1495 
11545 0 3 0.4312 25.2149 13.4066 
11687 0 3 1.4791 24.6708 14.1751 
20555 0 3 1.22042 27.4009 22.291 
18042 0 3 0.644625 25.0221 23.6529 
21453 0 3 0.370583 25.0189 24.8376 
13521 0 3 5.53234 23.7823 25.8252 
20741 0 3 3.18102 24.3642 27.623 
22598 0 3 2.40038 26.6203 27.7022 
21677 0 3 3.32134 23.713 28.754 
4479 0 3 0.102427 27.6878 29.203 
26081 0 3 4.06294 25.8383 31.9093 
24998 0 3 1.70134 25.1354 32.6552 
25062 0 3 1.20314 28.3263 32.4285 
26383 0 3 5.31009 23.5042 33.9219 
3814 0 3 5.21994 33.3395 3.46073 
8102 0 3 3.76165 31.0097 5.73669 
6392 0 3 0.848521 32.0559 8.34073 
6383 0 3 5.2777 29.4625 10.4878 
10897 0 3 0.691919 33.7452 12.0853 
13590 0 3 2.60078 29.2649 12.9308 
13594 0 3 3.36025 30.3025 12.909 
14343 0 3 2.96081 29.2129 14.1344 
18095 0 3 1.02743 33.9554 14.933 
15274 0 3 5.25949 28.9832 16.7333 
13586 0 3 5.65875 30.238 16.9612 
18031 0 3 1.27034 29.9195 17.3894 
17975 0 3 3.35145 30.1915 19.3958 
19887 0 3 3.91214 31.2267 21.6485 
22597 0 3 4.38222 29.3101 22.6227 
19973 0 3 5.16228 32.5192 22.3726 
26099 0 3 0.0474204 33.1637 26.5787 
20913 0 3 5.64869 33.4275 26.5504 
23424 0 3 4.33039 31.9189 27.9073 
21573 0 3 4.86688 32.7571 27.4434 
2848 0 3 3.01491 29.6398 28.5108 
26213 0 3 3.28423 31.6678 29.7484 
2725 0 3 0.944777 33.4561 32.9423 
2662 0 3 2.15101 31.4453 33.8974 
3747 0 3 3.6682 31.3309 33.8488 
21667 0 3 5.17899 33.8229 33.9394 
180 0 3 6.77692 0.441405 2.4689 
26970 0 3 11.1286 1.02847 2.44212 
8409 0 3 10.211 4.73687 2.82717 
6541 0 3 9.5008 4.70012 5.18264 
6605 0 3 6.29577 4.45047 6.34143 
8339 0 3 7.63801 0.175123 6.67452 
1982 0 3 8.78598 1.4123 7.84117 
7347 0 3 10.354 2.22277 8.50918 
6514 0 3 6.34504 0.77226 9.59883 
6419 0 3 6.67662 4.10002 10.2085 
11132 0 3 10.6556 4.19832 9.50672 
12784 0 3 7.48529 1.82623 10.8028 
11130 0 3 9.27349 2.5151 11.9764 
10112 0 3 6.23027 4.48119 11.7849 
2074 0 3 11.1076 0.783071 12.3495 
18509 0 3 11.1558 2.02711 12.6661 
9032 0 3 11.3099 2.83445 14.5863 
10330 0 3 10.4956 4.18912 15.505 
19173 0 3 7.9203 0.774804 16.6389 
14698 0 3 9.89677 0.414899 16.3189 
16350 0 3 7.34809 5.25334 16.5364 
23521 0 3 9.51387 5.46741 17.2748 
19050 0 3 7.32569 0.400527 18.0486 
13787 0 3 8.04431 4.71478 18.7279 
11946 0 3 9.50091 0.543497 18.943 
25345 0 3 7.19664 0.155264 21.6071 
19193 0 3 8.85887 5.58247 21.0914 
24610 0 3 10.3328 0.191556 22.5138 
22380 0 3 9.5972 5.32082 22.2134 
19135 0 3 6.89141 2.41911 23.4386 
21037 0 3 9.82238 0.652428 23.7207 
21121 0 3 9.17059 1.08555 27.84 
26472 0 3 10.1644 4.61993 29.6155 
190 0 3 9.37865 5.62643 30.2317 
24538 0 3 7.83468 1.44483 31.6177 
3898 0 3 6.57344 5.08941 31.4246 
1134 0 3 10.4505 6.10182 0.0534148 
1974 0 3 10.9949 6.44123 2.98604 
6656 0 3 10.5553 8.96741 3.85632 
6414 0 3 9.41647 10.967 4.34661 
10094 0 3 8.86505 10.8985 9.76112 
9391 0 3 10.6525 6.3516 11.9223 
11950 0 3 6.90068 10.4825 11.384 
15436 0 3 8.51015 10.9422 11.773 
12723 0 3 8.86641 6.82894 14.6271 
15372 0 3 6.15755 8.15797 15.6603 
12710 0 3 8.28732 7.65297 15.1231 
14475 0 3 6.26473 10.3336 15.7024 
15451 0 3 7.01611 6.52289 18.5997 
11933 0 3 9.86422 6.54341 18.0427 
18427 0 3 10.2522 9.40242 18.7419 
18093 0 3 9.03803 6.12414 18.9958 
17284 0 3 6.69902 6.02099 21.1554 
20210 0 3 9.88722 6.122 21.4173 
21766 0 3 6.04849 10.8392 21.6043 
17330 0 3 7.24039 10.4303 21.7781 
19133 0 3 7.7345 8.34611 25.0805 
19148 0 3 11.0148 8.52858 24.7127 
3773 0 3 9.99594 5.82957 27.4253 
21830 0 3 6.96449 5.93494 29.268 
23575 0 3 9.70355 7.92939 28.9038 
26267 0 3 8.5382 8.70949 28.9028 
24430 0 3 7.41128 8.39775 29.4117 
19032 0 3 7.33229 10.7787 29.6927 
21652 0 3 7.43619 10.013 32.0065 
4729 0 3 10.4251 13.2506 1.53521 
101 0 3 5.97886 15.1906 3.22652 
6616 0 3 9.60509 13.7237 4.62372 
6372 0 3 6.34607 16.8061 8.84602 
12924 0 3 7.94087 13.0193 12.2469 
10214 0 3 10.163 13.6967 13.0682 