ITEM: TIMESTEP
7000000
ITEM: NUMBER OF ATOMS
950
ITEM: BOX BOUNDS pp pp pp
7.2066043876332486e-01 3.3279339561239894e+01
7.2066043876332486e-01 3.3279339561239894e+01
7.2066043876332486e-01 3.3279339561239894e+01
ITEM: ATOMS id mol type x y z 
27467 325 4 1.95585 5.86919 5.30615 
27719 338 4 1.9652 5.80704 5.34806 
27720 338 4 1.06069 6.09068 4.93186 
27468 325 4 2.56858 5.75338 6.13257 
27460 325 4 1.71874 6.13848 6.4924 
27717 338 4 2.74173 5.82578 7.19108 
27469 325 4 2.72588 5.84395 7.15182 
27718 338 4 2.58051 5.71008 6.17499 
27716 338 4 2.40568 6.12314 8.12406 
27470 325 4 2.3856 6.11663 8.09079 
27709 338 4 1.42554 6.15539 6.1145 
27459 325 4 0.960384 6.34196 5.87311 
27466 325 4 1.05188 6.16034 4.894 
27457 325 4 0.868892 6.52359 6.85222 
27707 338 4 1.27413 6.51311 7.80244 
27461 325 4 1.62724 6.32011 7.4715 
27704 338 4 0.885868 6.50374 6.88093 
27462 325 4 0.777401 6.70521 7.83133 
27708 338 4 1.8138 6.16476 7.036 
27471 325 4 1.63892 6.49835 8.69789 
27715 338 4 1.6624 6.52248 8.72395 
27369 320 4 1.02858 12.0846 3.7134 
27380 320 4 2.06152 12.1391 3.75676 
27437 323 4 2.1585 12.1937 3.79366 
27420 323 4 1.28019 12.9489 4.23423 
27363 320 4 1.22255 12.9314 4.20876 
27426 323 4 1.12963 12.0875 3.74912 
27379 320 4 2.92163 12.6328 4.05397 
27436 323 4 2.99236 12.733 4.08623 
27425 323 4 2.21155 13.2717 4.40278 
27368 320 4 2.16907 13.2055 4.37905 
27362 320 4 1.41652 13.7782 4.70413 
27419 323 4 1.43075 13.8103 4.71933 
27423 323 4 1.5813 14.6717 5.20444 
27366 320 4 1.61048 14.6249 5.1995 
27424 323 4 2.36211 14.1331 4.88789 
27367 320 4 2.36304 14.0522 4.87442 
27378 320 4 3.37845 13.4333 4.5254 
27435 323 4 3.40779 13.561 4.54845 
27376 320 4 2.73344 15.0724 5.47277 
27433 323 4 2.68004 15.1777 5.47412 
27377 320 4 3.30957 14.3263 5.04471 
27434 323 4 3.29347 14.4558 5.05645 
27375 320 4 1.80445 15.4717 5.69487 
27432 323 4 1.73186 15.5331 5.68955 
27374 320 4 0.771508 15.4172 5.6515 
27849 345 4 5.47949 14.0582 7.23209 
27850 345 4 4.76896 14.7943 7.07375 
27852 345 4 4.81235 16.6854 6.42418 
27851 345 4 4.52477 15.756 6.77804 
27841 345 4 5.63916 15.2151 6.81741 
27842 345 4 5.66085 16.1607 6.49262 
27170 309 4 3.62206 16.9705 26.2735 
27171 309 4 4.02475 16.2467 26.8947 
27154 309 4 4.47821 16.9871 27.7791 
27160 309 4 4.534 15.9888 27.7584 
27161 309 4 5.01335 16.2659 28.6332 
27853 345 4 5.55464 17.3337 6.107 
27073 304 4 1.03785 18.4107 20.2277 
27074 304 4 1.09529 19.4442 20.2511 
27072 304 4 0.742655 17.5191 20.6632 
27075 304 4 0.899585 20.3425 20.7271 
27169 309 4 3.43382 17.9661 26.0613 
27158 309 4 3.96645 18.4761 27.0574 
27159 309 4 4.02224 17.4779 27.0367 
27153 309 4 4.42242 17.9853 27.7998 
27167 309 4 3.83149 19.7047 26.9665 
27168 309 4 3.51048 18.967 26.3149 
27166 309 4 4.31083 19.9818 27.8413 
27157 309 4 4.36662 18.9835 27.8205 
27156 309 4 4.82259 18.4927 28.563 
27163 309 4 5.41101 18.0045 29.5383 
27155 309 4 4.87838 17.4945 28.5422 
27162 309 4 5.33435 17.0037 29.2847 
27164 309 4 5.22277 19.0001 29.3261 
27165 309 4 4.82008 19.7239 28.705 
27394 321 4 11.125 2.41683 16.5619 
27395 321 4 10.6563 2.40019 17.4848 
27396 321 4 10.6368 2.66521 18.4854 
27386 321 4 11.4849 3.05827 18.13 
27397 321 4 11.0719 3.14087 19.2956 
27412 322 4 7.65348 9.33245 18.3472 
27413 322 4 8.18067 9.54762 17.4826 
27404 322 4 8.87439 9.48644 18.2002 
27414 322 4 9.07962 9.73001 17.0025 
27405 322 4 9.83878 9.628 17.9768 
27417 322 4 11.4969 9.70837 18.471 
27406 322 4 10.5325 9.56682 18.6944 
27415 322 4 10.1095 9.83074 17.0357 
27416 322 4 10.9942 9.82282 17.5732 
27411 322 4 7.63931 9.14214 19.3647 
27403 322 4 8.60371 9.2837 19.1413 
27400 322 4 9.5681 9.42526 18.9179 
27402 322 4 9.29742 9.22252 19.859 
27410 322 4 8.14196 9.0277 20.2625 
27401 322 4 10.2618 9.36408 19.6355 
27407 322 4 10.9555 9.30289 20.3532 
27418 322 4 11.4827 9.51807 19.4886 
27409 322 4 9.02674 9.01978 20.8 
27408 322 4 10.0566 9.12051 20.8332 
27844 345 4 8.24975 16.4775 6.04837 
27840 345 4 6.48766 14.6904 6.88585 
27847 345 4 7.46407 13.9381 7.01512 
27839 345 4 7.35786 15.1111 6.6295 
27848 345 4 6.46597 13.7448 7.21063 
27846 345 4 8.20636 14.5864 6.69794 
27838 345 4 7.37955 16.0567 6.30471 
27837 345 4 6.50935 15.6359 6.56106 
27843 345 4 6.53105 16.5814 6.23627 
27845 345 4 8.49394 15.5158 6.34408 
27750 340 4 8.28266 16.5912 12.6684 
27598 332 4 8.2455 16.6204 12.7227 
27592 332 4 9.45395 16.5934 12.9962 
27744 340 4 9.48146 16.5875 12.9828 
27746 340 4 11.1692 16.9305 12.7987 
27590 332 4 10.1922 16.9893 12.4501 
27594 332 4 11.1398 16.9129 12.7602 
27742 340 4 10.2315 16.9873 12.4559 
27745 340 4 10.4192 16.5307 13.3256 
27593 332 4 10.4016 16.517 13.3063 
27751 340 4 8.7314 16.1877 13.5097 
27599 332 4 8.71569 16.1975 13.5423 
27752 340 4 9.58209 15.9985 14.0685 
27600 332 4 9.58151 15.9868 14.0694 
27753 340 4 10.6068 16.0742 14.1953 
27601 332 4 10.611 16.0447 14.1625 
27602 332 4 11.5282 16.3557 13.7968 
27754 340 4 11.5309 16.3946 13.856 
27855 345 4 7.53922 17.2136 5.89002 
27854 345 4 6.55274 17.527 5.91149 
27760 340 4 8.93208 17.5799 11.0558 
27608 332 4 8.85619 17.6229 11.1034 
27607 332 4 9.77344 17.934 10.7377 
27759 340 4 9.85623 17.9003 10.7165 
27606 332 4 10.8029 17.9919 10.8308 
27758 340 4 10.8809 17.976 10.8432 
27591 332 4 9.24456 17.0657 12.14 
27597 332 4 8.29692 17.1422 11.8299 
27743 340 4 9.29381 17.044 12.1131 
27749 340 4 8.35612 17.1008 11.7703 
27596 332 4 9.98282 17.4616 11.5939 
27748 340 4 10.0439 17.4438 11.5862 
27595 332 4 10.9305 17.3852 11.904 
27747 340 4 10.9816 17.387 11.929 
27568 330 4 7.55681 19.9305 12.7386 
27808 343 4 7.61802 20.0269 12.6637 
27809 343 4 6.91434 19.5858 13.2819 
27567 330 4 8.5363 20.1361 12.4737 
27807 343 4 8.60666 20.2255 12.4292 
27566 330 4 9.55134 20.0569 12.6615 
27806 343 4 9.61533 20.1284 12.6413 
27557 330 4 8.60262 19.6047 13.3182 
27801 343 4 8.14974 19.5745 13.3797 
27800 343 4 9.1484 19.6252 13.3685 
27817 343 4 10.3738 19.7617 13.243 
27565 330 4 10.3299 19.7141 13.2515 
27553 330 4 7.83845 18.7528 14.6184 
27559 330 4 7.00796 18.4323 15.074 
27811 343 4 6.98914 18.4825 14.9483 
27803 343 4 8.21452 18.6189 14.8229 
27804 343 4 9.21318 18.6697 14.8117 
27554 330 4 8.73527 18.5418 15.0073 
27815 343 4 10.4486 18.6583 14.9095 
27563 330 4 10.4626 18.6513 14.9405 
27569 330 4 6.87531 19.4952 13.385 
27810 343 4 6.68415 19.0206 14.1181 
27570 330 4 6.67442 18.9468 14.2398 
27802 343 4 7.68281 19.0713 14.1069 
27558 330 4 7.77213 19.2842 13.7739 
27555 330 4 9.56576 18.8623 14.5516 
27799 343 4 8.68146 19.1221 14.0957 
27552 330 4 8.66895 19.0732 14.1628 
27556 330 4 9.49944 19.3937 13.7071 
27805 343 4 9.68011 19.1729 14.0845 
27816 343 4 10.6788 19.2236 14.0733 
27564 330 4 10.6635 19.1997 14.0857 
27812 343 4 7.74759 18.1158 15.5501 
27560 330 4 7.78656 18.0896 15.664 
27561 330 4 8.80159 18.0104 15.8518 
27813 343 4 8.75626 18.0187 15.7621 
27814 343 4 9.7449 18.2173 15.5277 
27562 330 4 9.78108 18.216 15.587 
27736 339 4 9.68063 19.9763 27.6393 
27829 344 4 9.63845 19.9399 27.7077 
27735 339 4 9.53727 20.5793 26.81 
27830 344 4 9.47278 20.5421 26.8821 
27733 339 4 8.69557 22.3648 26.4882 
27832 344 4 8.61519 22.3235 26.5802 
27726 339 4 8.9517 21.5226 27.3606 
27823 344 4 8.42317 22.288 27.804 
27831 344 4 9.09824 21.4145 26.4694 
27734 339 4 9.17672 21.4535 26.3887 
27822 344 4 8.89576 21.4826 27.4463 
27725 339 4 8.47472 22.3303 27.7072 
27738 339 4 9.23059 20.1145 29.5831 
27828 344 4 9.55086 19.7693 28.7251 
27737 339 4 9.56837 19.8062 28.6543 
27827 344 4 9.23349 20.076 29.6616 
27820 344 4 8.96338 20.8133 29.0424 
27728 339 4 8.97863 20.8531 28.9578 
27723 339 4 8.72668 21.5917 28.3325 
27818 344 4 8.69328 21.5507 28.4232 
27729 339 4 8.50166 21.6608 29.3044 
27819 344 4 8.49079 21.6188 29.4001 
27724 339 4 8.2497 22.3994 28.6791 
27824 344 4 8.22069 22.3561 28.781 
27821 344 4 9.16586 20.7453 28.0655 
27727 339 4 9.20365 20.784 27.9859 
27826 344 4 8.77136 20.7779 30.2662 
27739 339 4 8.75778 20.8186 30.1768 
27825 344 4 8.28831 21.6868 30.3771 
27740 339 4 8.27664 21.7299 30.2763 
27732 339 4 8.22277 23.0689 27.0819 
27833 344 4 8.15307 23.0254 27.1848 
27834 344 4 7.83569 23.3321 28.1213 
27731 339 4 7.88498 23.3772 28.0107 
27730 339 4 7.77273 23.2071 29.0257 
27835 344 4 7.7481 23.1615 29.1387 
27741 339 4 7.91608 22.6041 29.855 
27836 344 4 7.91377 22.5593 29.9643 
27393 321 4 11.9174 2.71065 15.9639 
27384 321 4 12.577 3.32714 16.8128 
27392 321 4 12.8211 3.20295 15.851 
27391 321 4 13.594 3.76179 16.2536 
27387 321 4 12.0889 3.57552 18.7364 
27381 321 4 12.333 3.45133 17.7746 
27382 321 4 12.9369 3.96858 18.381 
27383 321 4 13.181 3.84439 17.4192 
27385 321 4 11.729 2.93408 17.1682 
27390 321 4 14.0291 4.23745 17.0638 
27389 321 4 14.0096 4.50246 18.0644 
27398 321 4 11.8448 3.69971 19.6981 
27399 321 4 12.7485 4.192 19.5853 
27388 321 4 13.5409 4.48583 18.9873 
27240 313 4 13.6438 12.9971 1.0863 
27239 313 4 14.5669 12.5583 1.25122 
27874 346 4 14.577 12.5367 1.22195 
27873 346 4 13.6472 12.9533 1.03796 
27863 346 4 15.5983 12.6454 1.35174 
27238 313 4 15.5932 12.6421 1.35843 
27237 313 4 16.4477 13.2261 1.37921 
27864 346 4 16.4376 13.2501 1.39258 
27872 346 4 13.0582 13.7835 0.849093 
27241 313 4 13.0714 13.8411 0.907872 
27242 313 4 13.0029 14.864 0.763738 
27862 346 4 14.2831 13.7251 1.02884 
27856 346 4 14.9189 14.4969 1.01972 
27233 313 4 13.9776 14.6865 0.899803 
27229 313 4 14.9522 14.5089 1.03587 
27232 313 4 14.298 13.753 1.06108 
27861 346 4 13.9433 14.6509 0.862834 
27858 346 4 15.8944 14.3429 1.17661 
27857 346 4 15.2586 13.5711 1.18573 
27230 313 4 15.9269 14.3314 1.17193 
27231 313 4 15.2727 13.5755 1.19715 
27236 313 4 16.9016 14.1539 1.308 
27247 313 4 16.8331 15.1768 1.16386 
27865 346 4 16.87 14.189 1.3335 
27234 313 4 14.6318 15.4424 0.874586 
27860 346 4 14.5791 15.4226 0.853714 
27868 346 4 15.2608 16.4571 0.817502 
27866 346 4 16.7795 15.2103 1.19035 
27859 346 4 15.5547 15.2687 1.0106 
27867 346 4 16.1905 16.0405 1.00148 
27246 313 4 16.2606 16.0208 0.985433 
27235 313 4 15.6064 15.2649 1.01065 
27245 313 4 15.3376 16.4596 0.820517 
27527 328 4 13.9102 12.8487 3.10437 
27528 328 4 14.9081 12.6066 3.23659 
27529 328 4 15.9001 12.8959 3.30007 
27526 328 4 13.1739 13.5573 2.93885 
27525 328 4 12.8964 14.5427 2.78437 
27517 328 4 13.8913 14.5663 2.88221 
27518 328 4 14.3983 13.7193 3.04222 
27514 328 4 14.8863 14.5899 2.98006 
27531 328 4 16.8761 14.6371 3.17575 
27519 328 4 15.3932 13.7429 3.14006 
27530 328 4 16.6204 13.6391 3.2778 
27520 328 4 15.8812 14.6135 3.0779 
27524 328 4 13.1521 15.5407 2.68232 
27516 328 4 14.3793 15.4369 2.82005 
27523 328 4 13.8724 16.284 2.66005 
27522 328 4 14.8644 16.5733 2.72353 
27515 328 4 15.3743 15.4606 2.9179 
27532 328 4 16.5986 15.6225 3.02127 
27521 328 4 15.8623 16.3312 2.85574 
27489 326 4 15.134 12.9354 9.98077 
27221 312 4 15.0988 12.9158 10.0141 
27488 326 4 15.8185 12.1718 10.1225 
27222 312 4 15.7847 12.151 10.1423 
27487 326 4 16.732 11.8416 10.4808 
27223 312 4 16.7046 11.8193 10.4822 
27479 326 4 16.7025 12.8156 10.7057 
27214 312 4 16.6814 12.7934 10.7072 
27213 312 4 15.8785 13.3417 10.4731 
27480 326 4 15.9035 13.3625 10.4557 
27491 326 4 15.0749 14.8833 10.4307 
27220 312 4 14.8308 13.9088 10.1318 
27490 326 4 14.8618 13.9279 10.0936 
27219 312 4 15.0524 14.864 10.464 
27211 312 4 16.635 14.7416 11.1571 
27481 326 4 15.8739 14.3364 10.6807 
27476 326 4 16.6729 13.7895 10.9307 
27210 312 4 16.6582 13.7675 10.9322 
27212 312 4 15.8553 14.3158 10.6981 
27482 326 4 16.6434 14.7634 11.1556 
27492 326 4 15.7162 15.5456 10.9018 
27217 312 4 16.6117 15.7157 11.3821 
27493 326 4 16.6139 15.7373 11.3806 
27218 312 4 15.7043 15.5254 10.9216 
27603 332 4 12.0875 16.8365 13.0703 
27755 340 4 12.1069 16.8737 13.1415 
27260 314 4 15.0462 15.2986 23.2664 
27258 314 4 13.4209 16.2038 24.0005 
27259 314 4 14.0807 15.6203 23.4565 
27251 314 4 14.6511 16.1088 24.1168 
27261 314 4 16.0587 15.3249 23.4811 
27262 314 4 16.8468 15.6921 24.0431 
27252 314 4 15.64 15.9611 24.1291 
27798 342 4 16.9753 12.6196 25.6456 
27795 342 4 16.4471 15.1639 24.5289 
27796 342 4 16.1476 14.3586 25.1064 
27797 342 4 16.341 13.4273 25.5152 
27257 314 4 13.2435 16.8928 24.7526 
27250 314 4 14.2325 16.745 24.7649 
27248 314 4 15.2214 16.5973 24.7772 
27253 314 4 16.2104 16.4496 24.7895 
27871 346 4 12.9678 14.8048 33.2646 
27244 313 4 14.3113 16.3758 33.272 
27243 313 4 13.4567 15.7918 33.2512 
27870 346 4 13.4001 15.7436 33.2056 
27869 346 4 14.2394 16.3484 33.2464 
27605 332 4 11.6687 17.7811 11.3578 
27757 340 4 11.7316 17.7868 11.4021 
27604 332 4 12.1389 17.3582 12.1775 
27756 340 4 12.1804 17.3833 12.2433 
27768 341 4 16.6998 19.5982 18.2547 
27769 341 4 16.4793 19.8147 19.2428 
27770 341 4 16.7686 20.1833 20.1659 
27256 314 4 13.5961 17.5026 25.5113 
27249 314 4 14.8028 17.2336 25.4253 
27254 314 4 15.7918 17.0859 25.4375 
27255 314 4 14.3842 17.8698 26.0733 
27266 314 4 15.3966 17.8961 26.288 
27265 314 4 16.3621 17.5744 26.0979 
27146 308 4 15.5545 23.9499 29.4861 
27204 311 4 15.5782 23.8783 29.5217 
27145 308 4 15.8066 24.9325 29.2791 
27203 311 4 15.8154 24.8622 29.3038 
27144 308 4 15.9773 25.9013 29.6016 
27202 311 4 15.9721 25.8369 29.6156 
27148 308 4 15.0804 22.9299 31.1398 
27206 311 4 15.1209 22.8693 31.1869 
27147 308 4 15.2887 23.2169 30.1672 
27205 311 4 15.324 23.1488 30.211 
27138 308 4 15.3959 24.0491 30.7113 
27196 311 4 15.3178 23.8486 31.2338 
27195 311 4 15.5465 24.3531 30.4012 
27137 308 4 15.6549 24.9069 30.2672 
27194 311 4 15.7434 25.3324 30.4482 
27136 308 4 15.7621 25.7391 30.8112 
27134 308 4 15.5032 24.8813 31.2553 
27193 311 4 15.7116 25.8072 31.3277 
27191 311 4 15.5147 24.8279 31.2808 
27142 308 4 15.9259 26.8327 31.3707 
27201 311 4 16.0062 26.5412 30.3735 
27143 308 4 16.021 26.5969 30.3672 
27200 311 4 15.9086 26.7865 31.3746 
27149 308 4 14.9853 23.1658 32.1434 
27207 311 4 15.0233 23.1146 32.188 
27208 311 4 15.0574 23.819 32.946 
27150 308 4 15.029 23.8613 32.909 
27139 308 4 15.2442 24.0235 31.6994 
27197 311 4 15.2861 24.3234 32.1134 
27151 308 4 15.1997 24.8301 33.2315 
27209 311 4 15.214 24.7937 33.2577 
27152 308 4 15.4518 25.8127 33.0245 
27198 311 4 15.4512 25.7776 33.0398 
27135 308 4 15.6104 25.7135 31.7993 
27140 308 4 15.3514 24.8557 32.2434 
27192 311 4 15.483 25.3027 32.1603 
27141 308 4 15.7176 26.5457 32.3434 
27199 311 4 15.7054 26.507 32.3505 
27919 349 4 14.155 29.5146 1.6672 
27918 349 4 14.7091 29.0345 0.987116 
27929 349 4 14.655 28.4599 2.08385 
27928 349 4 15.1565 28.1724 1.22497 
27920 349 4 13.1535 30.8568 2.10942 
27921 349 4 13.1054 31.4465 1.25991 
27914 349 4 13.7077 30.3767 1.42934 
27913 349 4 14.2618 29.8967 0.749266 
27930 349 4 14.0482 29.1325 2.58513 
27931 349 4 13.4986 30.0098 2.59449 
27312 317 4 16.9814 30.9334 13.4374 
27925 349 4 15.025 29.7836 31.4627 
27917 349 4 14.8159 29.4166 32.6279 
27927 349 4 15.4182 28.3468 32.7973 
27926 349 4 15.3701 28.9366 31.9478 
27915 349 4 13.8145 30.7589 33.0701 
27916 349 4 14.3686 30.2788 32.39 
27923 349 4 13.8686 31.3335 31.9734 
27924 349 4 14.4754 30.6609 31.4721 
27922 349 4 13.3671 31.621 32.8322 
27225 312 4 18.264 12.6711 11.4004 
27224 312 4 17.6121 12.0097 10.9427 
27486 326 4 17.6297 12.0334 10.9596 
27485 326 4 18.271 12.6957 11.4306 
27215 312 4 17.4611 13.2193 11.1663 
27478 326 4 17.472 13.2426 11.1807 
27216 312 4 17.4379 14.1934 11.3912 
27477 326 4 17.4424 14.2165 11.4056 
27483 326 4 18.2119 14.6435 11.8806 
27484 326 4 18.4841 13.6511 11.7678 
27227 312 4 18.2176 14.6193 11.8503 
27226 312 4 18.4856 13.6262 11.7326 
27494 326 4 17.5273 15.4072 11.7388 
27228 312 4 17.5317 15.3841 11.722 
27784 342 4 18.0398 14.7568 23.9833 
27790 342 4 19.8258 13.4184 23.8466 
27783 342 4 18.8096 14.1191 23.9571 
27791 342 4 19.6325 14.3497 23.4378 
27792 342 4 18.9981 15.1574 23.3073 
27793 342 4 18.0928 15.6252 23.4902 
27794 342 4 17.159 15.6275 23.9373 
27782 342 4 18.7566 13.2508 24.4503 
27781 342 4 17.9337 13.0202 24.9696 
27787 342 4 17.8806 12.1518 25.4628 
27789 342 4 19.5264 12.613 24.4241 
27788 342 4 18.8144 12.1495 25.0157 
27780 342 4 17.9867 13.8885 24.4765 
27785 342 4 17.2169 14.5262 24.5027 
27786 342 4 17.1639 13.6579 24.9958 
27263 314 4 17.1994 16.3019 24.8018 
27264 314 4 17.022 16.9909 25.5539 
27456 324 4 17.6807 22.1799 0.767511 
27640 334 4 18.2198 21.4413 1.28644 
27455 324 4 18.2004 21.4219 1.24406 
27639 334 4 17.6734 22.1738 0.799916 
27443 324 4 19.8318 21.994 1.34916 
27454 324 4 19.0855 21.0439 1.62543 
27641 334 4 19.121 21.0939 1.65914 
27642 334 4 20.1356 21.2247 1.81815 
27453 324 4 20.0991 21.1474 1.80944 
27632 334 4 19.3326 21.9862 1.26039 
27633 334 4 20.2679 22.3386 1.29124 
27444 324 4 18.8825 22.1312 1.06646 
27643 334 4 20.9918 21.7986 1.72086 
27452 324 4 20.9694 21.7046 1.74679 
27778 341 4 18.3129 19.7972 17.0892 
27767 341 4 18.3473 20.0898 18.0449 
27779 341 4 17.3709 19.5918 17.4664 
27762 341 4 17.5407 19.9903 18.6276 
27777 341 4 19.2733 20.1595 17.2242 
27776 341 4 19.9948 20.5815 17.8351 
27766 341 4 19.1883 20.4819 18.4178 
27775 341 4 20.2841 20.9501 18.7582 
27763 341 4 17.5751 20.2829 19.5832 
27761 341 4 18.3817 20.3824 19.0005 
27764 341 4 18.4161 20.675 19.9561 
27765 341 4 19.2226 20.7745 19.3734 
27774 341 4 20.0636 21.1666 19.7463 
27773 341 4 19.3924 21.173 20.5346 
27771 341 4 17.4901 20.6053 20.7768 
27772 341 4 18.4505 20.9675 20.9118 
27631 334 4 18.6088 22.5262 0.830773 
27442 324 4 20.5139 22.7034 1.17157 
27634 334 4 20.4795 23.2309 0.892486 
27628 334 4 19.5441 22.8785 0.86163 
27438 324 4 19.5646 22.8406 0.888874 
27645 334 4 21.4148 23.5833 0.923343 
27644 334 4 21.46 22.6619 1.39333 
27451 324 4 21.4633 22.5661 1.45426 
27450 324 4 21.4484 23.5012 1.01024 
27624 333 4 21.6446 23.6955 16.8727 
27623 333 4 21.0054 24.2179 16.2479 
27662 335 4 21.6542 23.733 16.844 
27622 333 4 20.5363 25.1013 15.9809 
27664 335 4 20.5484 25.146 15.9604 
27663 335 4 21.0177 24.2607 16.221 
27653 335 4 21.095 25.3705 16.7672 
27613 333 4 21.0882 25.3332 16.7819 
27620 333 4 20.5318 26.971 16.691 
27654 335 4 20.5358 27.008 16.6904 
27621 333 4 20.3629 26.109 16.1431 
27665 335 4 20.372 26.1516 16.1323 
27661 335 4 22.2872 23.7041 17.6627 
27625 333 4 22.2827 23.674 17.6877 
27615 333 4 22.1943 24.8622 18.0288 
27652 335 4 21.6478 24.6639 17.209 
27614 333 4 21.6424 24.6303 17.2278 
27651 335 4 22.1944 24.8884 18.0158 
27609 333 4 21.6402 25.5651 17.5829 
27647 335 4 21.6415 25.5949 17.574 
27610 333 4 22.1921 25.7971 18.3838 
27650 335 4 22.1881 25.8194 18.3808 
27648 335 4 21.0887 26.3015 17.1322 
27612 333 4 21.086 26.2681 17.1369 
27611 333 4 21.6379 26.5 17.9379 
27649 335 4 21.6352 26.5259 17.939 
27655 335 4 20.9958 27.4858 17.4854 
27619 333 4 20.9977 27.4563 17.478 
27656 335 4 21.6289 27.4569 18.304 
27618 333 4 21.6357 27.4348 18.293 
27617 333 4 22.2749 26.9124 18.9178 
27657 335 4 22.2653 26.9291 18.9271 
27445 324 4 17.6659 23.1151 32.8822 
27638 334 4 17.6283 23.0951 32.8886 
27637 334 4 18.0965 23.9584 32.5611 
27446 324 4 18.1598 23.9766 32.5896 
27439 324 4 18.6152 22.9778 33.1649 
27630 334 4 18.8203 23.4185 32.9907 
27440 324 4 19.2973 23.6872 32.9873 
27629 334 4 19.7557 23.7709 33.0216 
27441 324 4 20.2467 23.55 33.27 
27447 324 4 19.0301 24.5338 32.527 
27636 334 4 18.9526 24.5324 32.4638 
27635 334 4 19.9672 24.6632 32.6228 
27448 324 4 20.0436 24.6373 32.711 
27449 324 4 20.9288 24.2593 33.0924 
27646 334 4 20.8685 24.3158 32.9955 
27314 317 4 18.2404 30.4595 11.9574 
27307 317 4 18.5944 30.8342 12.8142 
27313 317 4 17.404 30.6171 12.5467 
27315 317 4 19.2665 30.5026 11.8272 
27316 317 4 20.2075 30.7351 12.1911 
27308 317 4 19.578 30.9721 12.9311 
27317 317 4 20.811 31.0946 12.9516 
27323 317 4 17.0859 31.3235 14.3906 
27306 317 4 17.9649 31.0712 13.5542 
27311 317 4 18.3189 31.446 14.4111 
27305 317 4 18.9485 31.209 13.6711 
27309 317 4 19.932 31.3469 13.788 
27322 317 4 17.6894 31.683 15.1511 
27310 317 4 19.3025 31.5838 14.528 
27319 317 4 20.493 31.8009 14.7955 
27318 317 4 20.9155 31.4847 13.9049 
27321 317 4 18.6304 31.9154 15.515 
27320 317 4 19.6565 31.9586 15.3848 
27057 303 4 27.5357 5.63185 15.1467 
27088 305 4 25.9407 2.38524 16.9445 
27051 303 4 25.9315 2.44215 16.9502 
27053 303 4 27.6141 2.24854 15.8864 
27089 305 4 26.795 2.04338 16.47 
27052 303 4 26.7789 2.08364 16.4755 
27090 305 4 27.634 2.22709 15.8919 
27079 305 4 25.8913 4.08391 16.6097 
27042 303 4 26.0164 3.63249 16.6158 
27081 305 4 27.1859 3.11597 15.9877 
27043 303 4 26.7562 3.06032 16.262 
27082 305 4 27.5845 3.92577 15.5571 
27080 305 4 26.3393 3.19504 16.5139 
27077 305 4 26.7379 4.00484 16.0834 
27039 303 4 26.7336 4.037 16.0484 
27044 303 4 27.4735 3.46483 15.6946 
27041 303 4 25.9937 4.60917 16.4023 
27084 305 4 25.8418 5.78259 16.2749 
27047 303 4 25.8531 5.82546 16.2105 
27085 305 4 25.2429 5.12253 16.8016 
27048 303 4 25.2538 5.18135 16.7561 
27045 303 4 27.4509 4.44151 15.4811 
27095 305 4 26.6808 5.9663 15.6968 
27078 305 4 26.2898 4.89371 16.1791 
27040 303 4 26.711 5.01368 15.8349 
27094 305 4 27.5351 5.62444 15.2223 
27046 303 4 26.6884 5.99036 15.6214 
27083 305 4 27.1365 4.81464 15.6529 
27123 307 4 26.7131 2.10055 18.7463 
27104 306 4 26.7362 2.15013 18.7749 
27124 307 4 27.5936 2.19016 18.2092 
27105 306 4 27.6059 2.22328 18.2181 
27050 303 4 25.2991 3.22799 17.1832 
27086 305 4 25.0446 4.16298 17.136 
27087 305 4 25.3 3.16107 17.1882 
27049 303 4 25.0511 4.23061 17.1122 
27118 307 4 27.7396 3.88172 17.8666 
27116 307 4 26.3797 3.29405 18.764 
27097 306 4 26.4053 3.34444 18.7672 
27096 306 4 26.9002 4.09166 18.3236 
27115 307 4 26.8816 4.05379 18.3507 
27117 307 4 27.2376 3.12198 18.2799 
27098 306 4 27.253 3.15747 18.2709 
27099 306 4 27.7479 3.90469 17.8273 
27119 307 4 27.3836 4.81353 17.9374 
27100 306 4 27.395 4.83888 17.88 
27130 307 4 26.1697 5.91742 18.4921 
27111 306 4 26.1944 5.96003 18.4292 
27120 307 4 26.5257 4.98561 18.4214 
27101 306 4 26.5473 5.02584 18.3764 
27129 307 4 27.0502 6.00703 17.9551 
27110 306 4 27.0641 6.03318 17.8724 
27121 307 4 26.0237 4.22587 18.8347 
27122 307 4 25.8777 2.53431 19.1773 
27103 306 4 25.9104 2.59721 19.2108 
27114 306 4 25.3498 3.44473 19.409 
27133 307 4 25.3113 3.37522 19.3869 
27102 306 4 26.0524 4.27862 18.82 
27132 307 4 25.1657 4.39795 19.3188 
27113 306 4 25.2047 4.46559 19.3163 
27112 306 4 25.5138 5.38625 18.9577 
27131 307 4 25.4799 5.32846 18.9913 
27279 315 4 25.3434 7.90745 7.71566 
27278 315 4 26.2044 7.40006 7.44532 
27277 315 4 27.1591 7.06987 7.67197 
27269 315 4 27.2529 7.5334 8.81751 
27270 315 4 26.3792 7.73074 8.37273 
27268 315 4 27.4277 7.86408 9.74492 
27281 315 4 24.7384 8.899 9.34383 
27280 315 4 24.8068 8.45611 8.41056 
27271 315 4 25.6805 8.25876 8.85535 
27267 315 4 26.5541 8.06142 9.30014 
27272 315 4 25.8553 8.58945 9.78276 
27282 315 4 25.1566 9.11747 10.2654 
27283 315 4 25.9491 9.05297 10.9283 
27273 315 4 26.729 8.3921 10.2275 
27284 315 4 26.9038 8.72279 11.155 
27285 315 4 27.7648 8.21539 10.8846 
27035 302 4 24.2108 10.9388 19.6098 
27015 301 4 24.1837 11.0699 19.6378 
27889 347 4 24.1874 10.9655 19.6691 
27036 302 4 24.9666 10.3462 19.9964 
27890 347 4 24.9385 10.3583 20.0418 
27014 301 4 24.9321 10.4514 19.9972 
27025 302 4 24.3014 11.2246 20.5638 
27001 301 4 24.381 11.5625 21.5662 
27012 301 4 25.825 10.1935 21.7681 
27891 347 4 25.5443 10.0608 20.8269 
27881 347 4 25.1193 10.8337 21.6975 
27026 302 4 24.9802 10.788 21.1543 
27038 302 4 25.855 10.1721 21.7798 
27880 347 4 24.6673 10.9364 20.8114 
27005 301 4 24.6565 11.007 20.7817 
27004 301 4 25.103 10.878 21.6671 
27892 347 4 25.8424 10.1528 21.814 
27021 302 4 25.0708 11.0738 22.1083 
27037 302 4 25.5684 10.0656 20.7907 
27013 301 4 25.5329 10.1307 20.7769 
27020 302 4 24.392 11.5104 21.5178 
27875 347 4 24.3961 11.5145 21.581 
27882 347 4 25.3001 11.309 23.3532 
27028 302 4 25.2803 11.3363 23.3012 
27893 347 4 25.753 10.6097 22.7387 
27027 302 4 25.7495 10.6372 22.6987 
27011 301 4 25.7302 10.6232 22.7052 
27003 301 4 24.8274 11.4336 22.4517 
27876 347 4 24.8481 11.4118 22.4671 
27010 301 4 25.2738 11.3046 23.3371 
27016 301 4 23.4881 11.8204 19.7952 
27017 301 4 23.0318 12.5018 20.4271 
27888 347 4 23.4922 11.7199 19.8088 
27887 347 4 23.0392 12.4192 20.4233 
27033 302 4 23.0344 12.3836 20.3369 
27034 302 4 23.5036 11.6845 19.7344 
27002 301 4 24.1054 12.118 22.3507 
27006 301 4 23.9345 11.6915 20.6807 
27879 347 4 23.9442 11.6172 20.6949 
27032 302 4 22.9289 12.8487 21.2558 
27886 347 4 22.9498 12.8761 21.348 
27031 302 4 23.2155 12.9552 22.2449 
27024 302 4 23.7132 11.947 20.9273 
27878 347 4 23.673 12.1953 21.4645 
27007 301 4 23.6589 12.247 21.4652 
27023 302 4 23.8037 12.2328 21.8814 
27877 347 4 24.1249 12.0926 22.3506 
27885 347 4 23.248 12.9681 22.3351 
27019 301 4 23.2291 12.9944 22.3555 
27018 301 4 22.9369 12.9315 21.3642 
27030 302 4 23.8173 12.6746 23.0392 
27884 347 4 23.8538 12.6707 23.1202 
27008 301 4 23.8298 12.6736 23.1352 
27029 302 4 24.5731 12.082 23.4258 
27883 347 4 24.6049 12.0634 23.4928 
27009 301 4 24.5783 12.0551 23.4945 
27022 302 4 24.4825 11.7962 22.4718 
27660 335 4 22.7472 24.1819 18.4576 
27626 333 4 22.7485 24.1593 18.4747 
27627 333 4 22.9174 25.0213 19.0226 
27659 335 4 22.911 25.0383 19.0158 
27616 333 4 22.744 26.029 19.1848 
27658 335 4 22.7346 26.0439 19.1876 
27503 327 4 24.9594 25.9775 27.7314 
27692 337 4 24.9031 26.0022 27.7923 
27504 327 4 25.7306 25.3828 27.3802 
27693 337 4 25.6645 25.4201 27.4011 
27694 337 4 26.5831 24.9548 27.5086 
27505 327 4 26.6428 24.9166 27.5299 
27907 348 4 24.2189 23.1667 28.4028 
27945 350 4 24.1758 23.1111 28.3768 
27946 350 4 23.3607 23.7203 28.567 
27908 348 4 23.402 23.7711 28.6005 
27944 350 4 25.0702 22.6888 28.6825 
27906 348 4 25.1109 22.7375 28.7059 
27905 348 4 25.839 22.5985 29.4287 
27943 350 4 25.8043 22.5666 29.4023 
27898 348 4 24.3589 23.4936 29.3374 
27936 350 4 24.3238 23.46 29.3022 
27947 350 4 22.8433 24.3533 29.2021 
27909 348 4 22.8789 24.3887 29.2461 
27686 337 4 25.577 25.9294 28.5275 
27497 327 4 25.9936 25.6225 28.3148 
27495 327 4 26.2565 25.8622 29.2494 
27685 337 4 26.251 25.8566 29.2627 
27688 337 4 27.091 25.3329 29.1208 
27499 327 4 27.1169 25.5227 29.6294 
27498 327 4 26.854 25.283 28.6948 
27687 337 4 26.4171 25.4057 28.3857 
27695 337 4 27.4127 24.7312 28.0862 
27506 327 4 27.4515 24.7038 28.1403 
27703 337 4 24.5028 26.5454 28.5775 
27691 337 4 25.411 26.3802 29.4045 
27496 327 4 25.3961 26.2017 28.8694 
27702 337 4 24.5709 26.9039 29.5463 
27513 327 4 24.573 26.923 29.451 
27502 327 4 24.5356 26.5412 28.4894 
27899 348 4 23.6889 24.1045 29.7591 
27937 350 4 23.6575 24.0811 29.7149 
27897 348 4 25.169 23.2094 29.8504 
27935 350 4 25.138 23.1878 29.8149 
27934 350 4 25.286 23.5367 30.7403 
27896 348 4 25.309 23.5362 30.7851 
27894 348 4 24.4989 23.8204 30.2721 
27932 350 4 24.4718 23.8089 30.2276 
27933 350 4 24.6198 24.1578 31.153 
27895 348 4 24.6389 24.1472 31.2068 
27942 350 4 26.1813 22.7773 30.3431 
27904 348 4 26.2079 22.7868 30.3775 
27903 348 4 26.119 23.2521 31.2981 
27941 350 4 26.1003 23.2645 31.2531 
27910 348 4 22.79 24.854 30.1667 
27948 350 4 22.7622 24.8405 30.1121 
27900 348 4 23.8289 24.4314 30.6938 
27938 350 4 23.8055 24.43 30.6403 
27911 348 4 23.1589 25.0423 31.1155 
27949 350 4 23.1393 25.0512 31.0529 
27698 337 4 27.5989 25.7109 30.733 
27689 337 4 26.9249 25.7837 29.9979 
27509 327 4 27.5536 25.7469 30.7674 
27501 327 4 25.659 26.4414 29.804 
27512 327 4 25.0615 27.0206 30.3585 
27701 337 4 25.0893 26.9819 30.4392 
27700 337 4 25.9188 26.7583 31.0167 
27511 327 4 25.8702 26.8077 30.9689 
27690 337 4 26.0849 26.3074 30.1397 
27500 327 4 26.5194 26.1019 30.184 
27510 327 4 26.7823 26.3415 31.1186 
27699 337 4 26.8374 26.293 31.1243 
27902 348 4 25.5959 23.8697 31.9437 
27940 350 4 25.5829 23.8975 31.8882 
27912 348 4 23.8869 24.9033 31.8383 
27950 350 4 23.8733 24.929 31.7727 
27901 348 4 24.7789 24.474 32.1414 
27939 350 4 24.7678 24.5067 32.0784 
27055 303 4 28.4162 3.84339 14.9847 
27092 305 4 28.4312 3.84669 15.0309 
27093 305 4 28.1758 4.84861 14.9786 
27056 303 4 28.1681 4.84601 14.9137 
27054 303 4 28.2134 2.89265 15.3408 
27091 305 4 28.2329 2.88715 15.3652 
27125 307 4 28.2834 2.77913 17.7101 
27106 306 4 28.2865 2.79706 17.6896 
27107 306 4 28.5957 3.71772 17.3309 
27126 307 4 28.5976 3.70964 17.3826 
27108 306 4 28.4505 4.73858 17.2383 
27127 307 4 28.452 4.73237 17.3145 
27109 306 4 27.8899 5.5861 17.4365 
27128 307 4 27.8856 5.57327 17.524 
27722 338 4 31.9247 6.88434 5.63781 
27464 325 4 31.9109 6.93055 5.61366 
27710 338 4 33.0563 6.49437 5.95943 
27465 325 4 32.6575 6.54883 5.00656 
27721 338 4 32.668 6.485 5.03792 
27474 325 4 31.7279 7.29379 7.57188 
27712 338 4 31.7499 7.2974 7.58688 
27475 325 4 31.5706 7.20322 6.55263 
27711 338 4 31.5887 7.1817 6.57079 
27463 325 4 32.5777 6.90869 7.21205 
27705 338 4 32.5166 6.84272 6.72586 
27706 338 4 32.9049 6.85209 7.64737 
27458 325 4 32.6692 6.72707 6.23294 
27275 315 4 28.3698 7.22384 9.25645 
27276 315 4 27.9516 7.00537 8.33489 
27472 325 4 33.2446 6.88683 8.81044 
27473 325 4 32.3406 7.17798 8.39829 
27713 338 4 32.3652 7.20044 8.41381 
27714 338 4 33.2697 6.9168 8.83 
27274 315 4 28.3014 7.66674 10.1897 
27298 316 4 29.1196 11.4811 17.5288 
27337 318 4 29.6052 10.9621 18.276 
27299 316 4 29.628 10.9497 18.2575 
27338 318 4 29.089 11.4792 17.5425 
27335 318 4 30.0093 11.2765 20.2094 
27336 318 4 29.942 10.888 19.2521 
27300 316 4 29.9576 10.8581 19.2346 
27301 316 4 30.0202 11.2309 20.1984 
27370 320 4 32.6583 12.484 3.9355 
27427 323 4 32.7401 12.443 3.96455 
27371 320 4 32.0821 13.2301 4.36355 
27428 323 4 32.1267 13.1648 4.38222 
27365 320 4 33.2226 14.3509 5.02921 
27422 323 4 33.2086 14.349 5.03588 
27421 323 4 33.0581 13.4876 4.55078 
27364 320 4 33.0287 13.5041 4.53384 
27373 320 4 32.4701 14.9236 5.35429 
27372 320 4 32.0133 14.123 4.88287 
27429 323 4 32.0124 14.0596 4.89022 
27430 323 4 32.4278 14.8876 5.35243 
27431 323 4 33.2617 15.427 5.64501 
27329 318 4 28.7338 12.4578 18.2149 
27289 316 4 28.7649 12.4507 18.2144 
27339 318 4 28.5318 12.3006 17.2482 
27297 316 4 28.5688 12.3101 17.2439 
27296 316 4 28.123 13.2144 17.4791 