ITEM: TIMESTEP
0
ITEM: NUMBER OF ATOMS
950
ITEM: BOX BOUNDS pp pp pp
0.0000000000000000e+00 3.4000000000000000e+01
0.0000000000000000e+00 3.4000000000000000e+01
0.0000000000000000e+00 3.4000000000000000e+01
ITEM: ATOMS id mol type x y z 
27073 304 4 4 3.26795 3.3 
27074 304 4 5 3 3.3 
27072 304 4 3.26795 4 3.3 
27063 304 4 4.5 4.13398 3.3 
27064 304 4 5.5 4.13398 3.3 
27071 304 4 3 5 3.3 
27062 304 4 4 5 3.3 
27058 304 4 5 5 3.3 
27339 318 4 4 3.26795 12.1 
27340 318 4 5 3 12.1 
27338 318 4 3.26795 4 12.1 
27329 318 4 4.5 4.13398 12.1 
27330 318 4 5.5 4.13398 12.1 
27337 318 4 3 5 12.1 
27328 318 4 4 5 12.1 
27324 318 4 5 5 12.1 
27681 336 4 4 3.26795 23.1 
27682 336 4 5 3 23.1 
27680 336 4 3.26795 4 23.1 
27671 336 4 4.5 4.13398 23.1 
27672 336 4 5.5 4.13398 23.1 
27679 336 4 3 5 23.1 
27670 336 4 4 5 23.1 
27666 336 4 5 5 23.1 
27814 343 4 4 3.26795 26.4 
27815 343 4 5 3 26.4 
27813 343 4 3.26795 4 26.4 
27804 343 4 4.5 4.13398 26.4 
27805 343 4 5.5 4.13398 26.4 
27812 343 4 3 5 26.4 
27803 343 4 4 5 26.4 
27799 343 4 5 5 26.4 
27070 304 4 3.26795 6 3.3 
27061 304 4 4.5 5.86602 3.3 
27060 304 4 5.5 5.86602 3.3 
27069 304 4 4 6.73205 3.3 
27068 304 4 5 7 3.3 
27336 318 4 3.26795 6 12.1 
27327 318 4 4.5 5.86602 12.1 
27326 318 4 5.5 5.86602 12.1 
27335 318 4 4 6.73205 12.1 
27334 318 4 5 7 12.1 
27678 336 4 3.26795 6 23.1 
27669 336 4 4.5 5.86602 23.1 
27668 336 4 5.5 5.86602 23.1 
27677 336 4 4 6.73205 23.1 
27676 336 4 5 7 23.1 
27811 343 4 3.26795 6 26.4 
27802 343 4 4.5 5.86602 26.4 
27801 343 4 5.5 5.86602 26.4 
27810 343 4 4 6.73205 26.4 
27809 343 4 5 7 26.4 
27302 316 4 5 13 11 
27300 316 4 3.26795 14 11 
27291 316 4 4.5 14.134 11 
27301 316 4 4 13.2679 11 
27292 316 4 5.5 14.134 11 
27299 316 4 3 15 11 
27290 316 4 4 15 11 
27286 316 4 5 15 11 
27298 316 4 3.26795 16 11 
27289 316 4 4.5 15.866 11 
27288 316 4 5.5 15.866 11 
27297 316 4 4 16.7321 11 
27454 324 4 5 13 14.3 
27452 324 4 3.26795 14 14.3 
27443 324 4 4.5 14.134 14.3 
27453 324 4 4 13.2679 14.3 
27444 324 4 5.5 14.134 14.3 
27451 324 4 3 15 14.3 
27442 324 4 4 15 14.3 
27438 324 4 5 15 14.3 
27450 324 4 3.26795 16 14.3 
27441 324 4 4.5 15.866 14.3 
27440 324 4 5.5 15.866 14.3 
27449 324 4 4 16.7321 14.3 
27720 338 4 5 13 24.2 
27718 338 4 3.26795 14 24.2 
27709 338 4 4.5 14.134 24.2 
27719 338 4 4 13.2679 24.2 
27710 338 4 5.5 14.134 24.2 
27717 338 4 3 15 24.2 
27708 338 4 4 15 24.2 
27704 338 4 5 15 24.2 
27716 338 4 3.26795 16 24.2 
27707 338 4 4.5 15.866 24.2 
27706 338 4 5.5 15.866 24.2 
27715 338 4 4 16.7321 24.2 
27929 349 4 5 13 31.9 
27927 349 4 3.26795 14 31.9 
27918 349 4 4.5 14.134 31.9 
27928 349 4 4 13.2679 31.9 
27919 349 4 5.5 14.134 31.9 
27926 349 4 3 15 31.9 
27917 349 4 4 15 31.9 
27913 349 4 5 15 31.9 
27925 349 4 3.26795 16 31.9 
27916 349 4 4.5 15.866 31.9 
27915 349 4 5.5 15.866 31.9 
27924 349 4 4 16.7321 31.9 
27296 316 4 5 17 11 
27448 324 4 5 17 14.3 
27714 338 4 5 17 24.2 
27923 349 4 5 17 31.9 
27187 310 4 4 23.2679 7.7 
27188 310 4 5 23 7.7 
27186 310 4 3.26795 24 7.7 
27177 310 4 4.5 24.134 7.7 
27178 310 4 5.5 24.134 7.7 
27185 310 4 3 25 7.7 
27176 310 4 4 25 7.7 
27172 310 4 5 25 7.7 
27184 310 4 3.26795 26 7.7 
27175 310 4 4.5 25.866 7.7 
27174 310 4 5.5 25.866 7.7 
27183 310 4 4 26.7321 7.7 
27182 310 4 5 27 7.7 
27358 319 4 4 23.2679 12.1 
27359 319 4 5 23 12.1 
27357 319 4 3.26795 24 12.1 
27348 319 4 4.5 24.134 12.1 
27349 319 4 5.5 24.134 12.1 
27356 319 4 3 25 12.1 
27347 319 4 4 25 12.1 
27343 319 4 5 25 12.1 
27355 319 4 3.26795 26 12.1 
27346 319 4 4.5 25.866 12.1 
27345 319 4 5.5 25.866 12.1 
27354 319 4 4 26.7321 12.1 
27353 319 4 5 27 12.1 
27472 325 4 4 23.2679 15.4 
27473 325 4 5 23 15.4 
27471 325 4 3.26795 24 15.4 
27462 325 4 4.5 24.134 15.4 
27463 325 4 5.5 24.134 15.4 
27470 325 4 3 25 15.4 
27461 325 4 4 25 15.4 
27457 325 4 5 25 15.4 
27469 325 4 3.26795 26 15.4 
27460 325 4 4.5 25.866 15.4 
27459 325 4 5.5 25.866 15.4 
27468 325 4 4 26.7321 15.4 
27467 325 4 5 27 15.4 
27776 341 4 4 23.2679 25.3 
27777 341 4 5 23 25.3 
27775 341 4 3.26795 24 25.3 
27766 341 4 4.5 24.134 25.3 
27767 341 4 5.5 24.134 25.3 
27774 341 4 3 25 25.3 
27765 341 4 4 25 25.3 
27761 341 4 5 25 25.3 
27773 341 4 3.26795 26 25.3 
27764 341 4 4.5 25.866 25.3 
27763 341 4 5.5 25.866 25.3 
27772 341 4 4 26.7321 25.3 
27771 341 4 5 27 25.3 
27852 345 4 4 23.2679 27.5 
27853 345 4 5 23 27.5 
27851 345 4 3.26795 24 27.5 
27842 345 4 4.5 24.134 27.5 
27843 345 4 5.5 24.134 27.5 
27850 345 4 3 25 27.5 
27841 345 4 4 25 27.5 
27837 345 4 5 25 27.5 
27849 345 4 3.26795 26 27.5 
27840 345 4 4.5 25.866 27.5 
27839 345 4 5.5 25.866 27.5 
27848 345 4 4 26.7321 27.5 
27847 345 4 5 27 27.5 
27909 348 4 4 23.2679 30.8 
27910 348 4 5 23 30.8 
27908 348 4 3.26795 24 30.8 
27899 348 4 4.5 24.134 30.8 
27900 348 4 5.5 24.134 30.8 
27907 348 4 3 25 30.8 
27898 348 4 4 25 30.8 
27894 348 4 5 25 30.8 
27906 348 4 3.26795 26 30.8 
27897 348 4 4.5 25.866 30.8 
27896 348 4 5.5 25.866 30.8 
27905 348 4 4 26.7321 30.8 
27904 348 4 5 27 30.8 
27947 350 4 4 23.2679 31.9 
27948 350 4 5 23 31.9 
27946 350 4 3.26795 24 31.9 
27937 350 4 4.5 24.134 31.9 
27938 350 4 5.5 24.134 31.9 
27945 350 4 3 25 31.9 
27936 350 4 4 25 31.9 
27932 350 4 5 25 31.9 
27944 350 4 3.26795 26 31.9 
27935 350 4 4.5 25.866 31.9 
27934 350 4 5.5 25.866 31.9 
27943 350 4 4 26.7321 31.9 
27942 350 4 5 27 31.9 
27075 304 4 6 3.26795 3.3 
27076 304 4 6.73205 4 3.3 
27059 304 4 6 5 3.3 
27065 304 4 7 5 3.3 
27341 318 4 6 3.26795 12.1 
27342 318 4 6.73205 4 12.1 
27325 318 4 6 5 12.1 
27331 318 4 7 5 12.1 
27683 336 4 6 3.26795 23.1 
27684 336 4 6.73205 4 23.1 
27667 336 4 6 5 23.1 
27673 336 4 7 5 23.1 
27816 343 4 6 3.26795 26.4 
27817 343 4 6.73205 4 26.4 
27800 343 4 6 5 26.4 
27806 343 4 7 5 26.4 
27066 304 4 6.73205 6 3.3 
27067 304 4 6 6.73205 3.3 
27332 318 4 6.73205 6 12.1 
27333 318 4 6 6.73205 12.1 
27674 336 4 6.73205 6 23.1 
27675 336 4 6 6.73205 23.1 
27807 343 4 6.73205 6 26.4 
27808 343 4 6 6.73205 26.4 
27303 316 4 6 13.2679 11 
27304 316 4 6.73205 14 11 
27287 316 4 6 15 11 
27293 316 4 7 15 11 
27294 316 4 6.73205 16 11 
27295 316 4 6 16.7321 11 
27455 324 4 6 13.2679 14.3 
27456 324 4 6.73205 14 14.3 
27439 324 4 6 15 14.3 
27445 324 4 7 15 14.3 
27446 324 4 6.73205 16 14.3 
27447 324 4 6 16.7321 14.3 
27721 338 4 6 13.2679 24.2 
27722 338 4 6.73205 14 24.2 
27705 338 4 6 15 24.2 
27711 338 4 7 15 24.2 
27712 338 4 6.73205 16 24.2 
27713 338 4 6 16.7321 24.2 
27930 349 4 6 13.2679 31.9 
27931 349 4 6.73205 14 31.9 
27914 349 4 6 15 31.9 
27920 349 4 7 15 31.9 
27921 349 4 6.73205 16 31.9 
27922 349 4 6 16.7321 31.9 
27189 310 4 6 23.2679 7.7 
27190 310 4 6.73205 24 7.7 
27173 310 4 6 25 7.7 
27179 310 4 7 25 7.7 
27180 310 4 6.73205 26 7.7 
27181 310 4 6 26.7321 7.7 
27360 319 4 6 23.2679 12.1 
27361 319 4 6.73205 24 12.1 
27344 319 4 6 25 12.1 
27350 319 4 7 25 12.1 
27351 319 4 6.73205 26 12.1 
27352 319 4 6 26.7321 12.1 
27474 325 4 6 23.2679 15.4 
27475 325 4 6.73205 24 15.4 
27458 325 4 6 25 15.4 
27464 325 4 7 25 15.4 
27465 325 4 6.73205 26 15.4 
27466 325 4 6 26.7321 15.4 
27778 341 4 6 23.2679 25.3 
27779 341 4 6.73205 24 25.3 
27762 341 4 6 25 25.3 
27768 341 4 7 25 25.3 
27769 341 4 6.73205 26 25.3 
27770 341 4 6 26.7321 25.3 
27854 345 4 6 23.2679 27.5 
27855 345 4 6.73205 24 27.5 
27838 345 4 6 25 27.5 
27844 345 4 7 25 27.5 
27845 345 4 6.73205 26 27.5 
27846 345 4 6 26.7321 27.5 
27911 348 4 6 23.2679 30.8 
27912 348 4 6.73205 24 30.8 
27895 348 4 6 25 30.8 
27901 348 4 7 25 30.8 
27902 348 4 6.73205 26 30.8 
27903 348 4 6 26.7321 30.8 
27949 350 4 6 23.2679 31.9 
27950 350 4 6.73205 24 31.9 
27933 350 4 6 25 31.9 
27939 350 4 7 25 31.9 
27940 350 4 6.73205 26 31.9 
27941 350 4 6 26.7321 31.9 
27016 301 4 14 3.26795 1.1 
27017 301 4 15 3 1.1 
27018 301 4 16 3.26795 1.1 
27015 301 4 13.2679 4 1.1 
27006 301 4 14.5 4.13398 1.1 
27007 301 4 15.5 4.13398 1.1 
27019 301 4 16.7321 4 1.1 
27014 301 4 13 5 1.1 
27005 301 4 14 5 1.1 
27001 301 4 15 5 1.1 
27002 301 4 16 5 1.1 
27035 302 4 14 3.26795 2.2 
27036 302 4 15 3 2.2 
27037 302 4 16 3.26795 2.2 
27034 302 4 13.2679 4 2.2 
27025 302 4 14.5 4.13398 2.2 
27026 302 4 15.5 4.13398 2.2 
27038 302 4 16.7321 4 2.2 
27033 302 4 13 5 2.2 
27024 302 4 14 5 2.2 
27020 302 4 15 5 2.2 
27021 302 4 16 5 2.2 
27415 322 4 14 3.26795 14.3 
27416 322 4 15 3 14.3 
27417 322 4 16 3.26795 14.3 
27414 322 4 13.2679 4 14.3 
27405 322 4 14.5 4.13398 14.3 
27406 322 4 15.5 4.13398 14.3 
27418 322 4 16.7321 4 14.3 
27413 322 4 13 5 14.3 
27404 322 4 14 5 14.3 
27400 322 4 15 5 14.3 
27401 322 4 16 5 14.3 
27605 332 4 14 3.26795 20.9 
27606 332 4 15 3 20.9 
27607 332 4 16 3.26795 20.9 
27604 332 4 13.2679 4 20.9 
27595 332 4 14.5 4.13398 20.9 
27596 332 4 15.5 4.13398 20.9 
27608 332 4 16.7321 4 20.9 
27603 332 4 13 5 20.9 
27594 332 4 14 5 20.9 
27590 332 4 15 5 20.9 
27591 332 4 16 5 20.9 
27757 340 4 14 3.26795 25.3 
27758 340 4 15 3 25.3 
27759 340 4 16 3.26795 25.3 
27756 340 4 13.2679 4 25.3 
27747 340 4 14.5 4.13398 25.3 
27748 340 4 15.5 4.13398 25.3 
27760 340 4 16.7321 4 25.3 
27755 340 4 13 5 25.3 
27746 340 4 14 5 25.3 
27742 340 4 15 5 25.3 
27743 340 4 16 5 25.3 
27890 347 4 14 3.26795 30.8 
27891 347 4 15 3 30.8 
27892 347 4 16 3.26795 30.8 
27889 347 4 13.2679 4 30.8 
27880 347 4 14.5 4.13398 30.8 
27881 347 4 15.5 4.13398 30.8 
27893 347 4 16.7321 4 30.8 
27888 347 4 13 5 30.8 
27879 347 4 14 5 30.8 
27875 347 4 15 5 30.8 
27876 347 4 16 5 30.8 
27013 301 4 13.2679 6 1.1 
27004 301 4 14.5 5.86602 1.1 
27003 301 4 15.5 5.86602 1.1 
27009 301 4 16.7321 6 1.1 
27012 301 4 14 6.73205 1.1 
27011 301 4 15 7 1.1 
27010 301 4 16 6.73205 1.1 
27032 302 4 13.2679 6 2.2 
27023 302 4 14.5 5.86602 2.2 
27022 302 4 15.5 5.86602 2.2 
27028 302 4 16.7321 6 2.2 
27031 302 4 14 6.73205 2.2 
27030 302 4 15 7 2.2 
27029 302 4 16 6.73205 2.2 
27412 322 4 13.2679 6 14.3 
27403 322 4 14.5 5.86602 14.3 
27402 322 4 15.5 5.86602 14.3 
27408 322 4 16.7321 6 14.3 
27411 322 4 14 6.73205 14.3 
27410 322 4 15 7 14.3 
27409 322 4 16 6.73205 14.3 
27602 332 4 13.2679 6 20.9 
27593 332 4 14.5 5.86602 20.9 
27592 332 4 15.5 5.86602 20.9 
27598 332 4 16.7321 6 20.9 
27601 332 4 14 6.73205 20.9 
27600 332 4 15 7 20.9 
27599 332 4 16 6.73205 20.9 
27754 340 4 13.2679 6 25.3 
27745 340 4 14.5 5.86602 25.3 
27744 340 4 15.5 5.86602 25.3 
27750 340 4 16.7321 6 25.3 
27753 340 4 14 6.73205 25.3 
27752 340 4 15 7 25.3 
27751 340 4 16 6.73205 25.3 
27887 347 4 13.2679 6 30.8 
27878 347 4 14.5 5.86602 30.8 
27877 347 4 15.5 5.86602 30.8 
27883 347 4 16.7321 6 30.8 
27886 347 4 14 6.73205 30.8 
27885 347 4 15 7 30.8 
27884 347 4 16 6.73205 30.8 
27321 317 4 15 13 11 
27319 317 4 13.2679 14 11 
27320 317 4 14 13.2679 11 
27310 317 4 14.5 14.134 11 
27311 317 4 15.5 14.134 11 
27322 317 4 16 13.2679 11 
27323 317 4 16.7321 14 11 
27318 317 4 13 15 11 
27309 317 4 14 15 11 
27305 317 4 15 15 11 
27306 317 4 16 15 11 
27317 317 4 13.2679 16 11 
27308 317 4 14.5 15.866 11 
27307 317 4 15.5 15.866 11 
27313 317 4 16.7321 16 11 
27316 317 4 14 16.7321 11 
27314 317 4 16 16.7321 11 
27625 333 4 15 13 20.9 
27623 333 4 13.2679 14 20.9 
27624 333 4 14 13.2679 20.9 
27614 333 4 14.5 14.134 20.9 
27615 333 4 15.5 14.134 20.9 
27626 333 4 16 13.2679 20.9 
27627 333 4 16.7321 14 20.9 
27622 333 4 13 15 20.9 
27613 333 4 14 15 20.9 
27609 333 4 15 15 20.9 
27610 333 4 16 15 20.9 
27621 333 4 13.2679 16 20.9 
27612 333 4 14.5 15.866 20.9 
27611 333 4 15.5 15.866 20.9 
27617 333 4 16.7321 16 20.9 
27620 333 4 14 16.7321 20.9 
27618 333 4 16 16.7321 20.9 
27663 335 4 15 13 22 
27661 335 4 13.2679 14 22 
27662 335 4 14 13.2679 22 
27652 335 4 14.5 14.134 22 
27653 335 4 15.5 14.134 22 
27664 335 4 16 13.2679 22 
27665 335 4 16.7321 14 22 
27660 335 4 13 15 22 
27651 335 4 14 15 22 
27647 335 4 15 15 22 
27648 335 4 16 15 22 
27659 335 4 13.2679 16 22 
27650 335 4 14.5 15.866 22 
27649 335 4 15.5 15.866 22 
27655 335 4 16.7321 16 22 
27658 335 4 14 16.7321 22 
27656 335 4 16 16.7321 22 
27834 344 4 15 13 27.5 
27832 344 4 13.2679 14 27.5 
27833 344 4 14 13.2679 27.5 
27823 344 4 14.5 14.134 27.5 
27824 344 4 15.5 14.134 27.5 
27835 344 4 16 13.2679 27.5 
27836 344 4 16.7321 14 27.5 
27831 344 4 13 15 27.5 
27822 344 4 14 15 27.5 
27818 344 4 15 15 27.5 
27819 344 4 16 15 27.5 
27830 344 4 13.2679 16 27.5 
27821 344 4 14.5 15.866 27.5 
27820 344 4 15.5 15.866 27.5 
27826 344 4 16.7321 16 27.5 
27829 344 4 14 16.7321 27.5 
27827 344 4 16 16.7321 27.5 
27315 317 4 15 17 11 
27619 333 4 15 17 20.9 
27657 335 4 15 17 22 
27828 344 4 15 17 27.5 
27149 308 4 14 23.2679 6.6 
27150 308 4 15 23 6.6 
27151 308 4 16 23.2679 6.6 
27148 308 4 13.2679 24 6.6 
27139 308 4 14.5 24.134 6.6 
27140 308 4 15.5 24.134 6.6 
27152 308 4 16.7321 24 6.6 
27147 308 4 13 25 6.6 
27138 308 4 14 25 6.6 
27134 308 4 15 25 6.6 
27135 308 4 16 25 6.6 
27146 308 4 13.2679 26 6.6 
27137 308 4 14.5 25.866 6.6 
27136 308 4 15.5 25.866 6.6 
27142 308 4 16.7321 26 6.6 
27145 308 4 14 26.7321 6.6 
27144 308 4 15 27 6.6 
27143 308 4 16 26.7321 6.6 
27206 311 4 14 23.2679 7.7 
27207 311 4 15 23 7.7 
27208 311 4 16 23.2679 7.7 
27205 311 4 13.2679 24 7.7 
27196 311 4 14.5 24.134 7.7 
27197 311 4 15.5 24.134 7.7 
27209 311 4 16.7321 24 7.7 
27204 311 4 13 25 7.7 
27195 311 4 14 25 7.7 
27191 311 4 15 25 7.7 
27192 311 4 16 25 7.7 
27203 311 4 13.2679 26 7.7 
27194 311 4 14.5 25.866 7.7 
27193 311 4 15.5 25.866 7.7 
27199 311 4 16.7321 26 7.7 
27202 311 4 14 26.7321 7.7 
27201 311 4 15 27 7.7 
27200 311 4 16 26.7321 7.7 
27282 315 4 14 23.2679 9.9 
27283 315 4 15 23 9.9 
27284 315 4 16 23.2679 9.9 
27281 315 4 13.2679 24 9.9 
27272 315 4 14.5 24.134 9.9 
27273 315 4 15.5 24.134 9.9 
27285 315 4 16.7321 24 9.9 
27280 315 4 13 25 9.9 
27271 315 4 14 25 9.9 
27267 315 4 15 25 9.9 
27268 315 4 16 25 9.9 
27279 315 4 13.2679 26 9.9 
27270 315 4 14.5 25.866 9.9 
27269 315 4 15.5 25.866 9.9 
27275 315 4 16.7321 26 9.9 
27278 315 4 14 26.7321 9.9 
27277 315 4 15 27 9.9 
27276 315 4 16 26.7321 9.9 
27529 328 4 14 23.2679 17.6 
27530 328 4 15 23 17.6 
27531 328 4 16 23.2679 17.6 
27528 328 4 13.2679 24 17.6 
27519 328 4 14.5 24.134 17.6 
27520 328 4 15.5 24.134 17.6 
27532 328 4 16.7321 24 17.6 
27527 328 4 13 25 17.6 
27518 328 4 14 25 17.6 
27514 328 4 15 25 17.6 
27515 328 4 16 25 17.6 
27526 328 4 13.2679 26 17.6 
27517 328 4 14.5 25.866 17.6 
27516 328 4 15.5 25.866 17.6 
27522 328 4 16.7321 26 17.6 
27525 328 4 14 26.7321 17.6 
27524 328 4 15 27 17.6 
27523 328 4 16 26.7321 17.6 
27795 342 4 14 23.2679 25.3 
27796 342 4 15 23 25.3 
27797 342 4 16 23.2679 25.3 
27794 342 4 13.2679 24 25.3 
27785 342 4 14.5 24.134 25.3 
27786 342 4 15.5 24.134 25.3 
27798 342 4 16.7321 24 25.3 
27793 342 4 13 25 25.3 
27784 342 4 14 25 25.3 
27780 342 4 15 25 25.3 
27781 342 4 16 25 25.3 
27792 342 4 13.2679 26 25.3 
27783 342 4 14.5 25.866 25.3 
27782 342 4 15.5 25.866 25.3 
27788 342 4 16.7321 26 25.3 
27791 342 4 14 26.7321 25.3 
27790 342 4 15 27 25.3 
27789 342 4 16 26.7321 25.3 
27008 301 4 17 5 1.1 
27027 302 4 17 5 2.2 
27407 322 4 17 5 14.3 
27597 332 4 17 5 20.9 
27749 340 4 17 5 25.3 
27882 347 4 17 5 30.8 
27312 317 4 17 15 11 
27616 333 4 17 15 20.9 
27654 335 4 17 15 22 
27825 344 4 17 15 27.5 
27141 308 4 17 25 6.6 
27198 311 4 17 25 7.7 
27274 315 4 17 25 9.9 
27521 328 4 17 25 17.6 
27787 342 4 17 25 25.3 
27054 303 4 24 3.26795 2.2 
27055 303 4 25 3 2.2 
27056 303 4 26 3.26795 2.2 
27053 303 4 23.2679 4 2.2 
27044 303 4 24.5 4.13398 2.2 
27045 303 4 25.5 4.13398 2.2 
27057 303 4 26.7321 4 2.2 
27052 303 4 23 5 2.2 
27043 303 4 24 5 2.2 
27039 303 4 25 5 2.2 
27040 303 4 26 5 2.2 
27046 303 4 27 5 2.2 
27092 305 4 24 3.26795 3.3 
27093 305 4 25 3 3.3 
27094 305 4 26 3.26795 3.3 
27091 305 4 23.2679 4 3.3 
27082 305 4 24.5 4.13398 3.3 
27083 305 4 25.5 4.13398 3.3 
27095 305 4 26.7321 4 3.3 
27090 305 4 23 5 3.3 
27081 305 4 24 5 3.3 
27077 305 4 25 5 3.3 
27078 305 4 26 5 3.3 
27084 305 4 27 5 3.3 
27263 314 4 24 3.26795 9.9 
27264 314 4 25 3 9.9 
27265 314 4 26 3.26795 9.9 
27262 314 4 23.2679 4 9.9 
27253 314 4 24.5 4.13398 9.9 
27254 314 4 25.5 4.13398 9.9 
27266 314 4 26.7321 4 9.9 
27261 314 4 23 5 9.9 
27252 314 4 24 5 9.9 
27248 314 4 25 5 9.9 
27249 314 4 26 5 9.9 
27255 314 4 27 5 9.9 
27377 320 4 24 3.26795 13.2 
27378 320 4 25 3 13.2 
27379 320 4 26 3.26795 13.2 
27376 320 4 23.2679 4 13.2 
27367 320 4 24.5 4.13398 13.2 
27368 320 4 25.5 4.13398 13.2 
27380 320 4 26.7321 4 13.2 
27375 320 4 23 5 13.2 
27366 320 4 24 5 13.2 
27362 320 4 25 5 13.2 
27363 320 4 26 5 13.2 
27369 320 4 27 5 13.2 
27434 323 4 24 3.26795 14.3 
27435 323 4 25 3 14.3 
27436 323 4 26 3.26795 14.3 
27433 323 4 23.2679 4 14.3 
27424 323 4 24.5 4.13398 14.3 
27425 323 4 25.5 4.13398 14.3 
27437 323 4 26.7321 4 14.3 
27432 323 4 23 5 14.3 
27423 323 4 24 5 14.3 
27419 323 4 25 5 14.3 
27420 323 4 26 5 14.3 
27426 323 4 27 5 14.3 
27510 327 4 24 3.26795 17.6 
27511 327 4 25 3 17.6 
27512 327 4 26 3.26795 17.6 
27509 327 4 23.2679 4 17.6 
27500 327 4 24.5 4.13398 17.6 
27501 327 4 25.5 4.13398 17.6 
27513 327 4 26.7321 4 17.6 
27508 327 4 23 5 17.6 
27499 327 4 24 5 17.6 
27495 327 4 25 5 17.6 
27496 327 4 26 5 17.6 
27502 327 4 27 5 17.6 
27700 337 4 24 3.26795 23.1 
27701 337 4 25 3 23.1 
27702 337 4 26 3.26795 23.1 
27699 337 4 23.2679 4 23.1 
27690 337 4 24.5 4.13398 23.1 
27691 337 4 25.5 4.13398 23.1 
27703 337 4 26.7321 4 23.1 
27698 337 4 23 5 23.1 
27689 337 4 24 5 23.1 
27685 337 4 25 5 23.1 
27686 337 4 26 5 23.1 
27692 337 4 27 5 23.1 
27871 346 4 24 3.26795 29.7 
27872 346 4 25 3 29.7 
27873 346 4 26 3.26795 29.7 
27870 346 4 23.2679 4 29.7 
27861 346 4 24.5 4.13398 29.7 
27862 346 4 25.5 4.13398 29.7 
27874 346 4 26.7321 4 29.7 
27869 346 4 23 5 29.7 
27860 346 4 24 5 29.7 
27856 346 4 25 5 29.7 
27857 346 4 26 5 29.7 
27863 346 4 27 5 29.7 
27051 303 4 23.2679 6 2.2 
27042 303 4 24.5 5.86602 2.2 
27041 303 4 25.5 5.86602 2.2 
27047 303 4 26.7321 6 2.2 
27050 303 4 24 6.73205 2.2 
27049 303 4 25 7 2.2 
27048 303 4 26 6.73205 2.2 
27089 305 4 23.2679 6 3.3 
27080 305 4 24.5 5.86602 3.3 
27079 305 4 25.5 5.86602 3.3 
27085 305 4 26.7321 6 3.3 
27088 305 4 24 6.73205 3.3 
27087 305 4 25 7 3.3 
27086 305 4 26 6.73205 3.3 
27260 314 4 23.2679 6 9.9 
27251 314 4 24.5 5.86602 9.9 
27250 314 4 25.5 5.86602 9.9 
27256 314 4 26.7321 6 9.9 
27259 314 4 24 6.73205 9.9 
27258 314 4 25 7 9.9 
27257 314 4 26 6.73205 9.9 
27374 320 4 23.2679 6 13.2 
27365 320 4 24.5 5.86602 13.2 
27364 320 4 25.5 5.86602 13.2 
27370 320 4 26.7321 6 13.2 
27373 320 4 24 6.73205 13.2 
27372 320 4 25 7 13.2 
27371 320 4 26 6.73205 13.2 
27431 323 4 23.2679 6 14.3 
27422 323 4 24.5 5.86602 14.3 
27421 323 4 25.5 5.86602 14.3 
27427 323 4 26.7321 6 14.3 
27430 323 4 24 6.73205 14.3 
27429 323 4 25 7 14.3 
27428 323 4 26 6.73205 14.3 
27507 327 4 23.2679 6 17.6 
27498 327 4 24.5 5.86602 17.6 
27497 327 4 25.5 5.86602 17.6 
27503 327 4 26.7321 6 17.6 
27506 327 4 24 6.73205 17.6 
27505 327 4 25 7 17.6 
27504 327 4 26 6.73205 17.6 
27697 337 4 23.2679 6 23.1 
27688 337 4 24.5 5.86602 23.1 
27687 337 4 25.5 5.86602 23.1 
27693 337 4 26.7321 6 23.1 
27696 337 4 24 6.73205 23.1 
27695 337 4 25 7 23.1 
27694 337 4 26 6.73205 23.1 
27868 346 4 23.2679 6 29.7 
27859 346 4 24.5 5.86602 29.7 
27858 346 4 25.5 5.86602 29.7 
27864 346 4 26.7321 6 29.7 
27867 346 4 24 6.73205 29.7 
27866 346 4 25 7 29.7 
27865 346 4 26 6.73205 29.7 
27112 306 4 25 13 3.3 
27110 306 4 23.2679 14 3.3 
27101 306 4 24.5 14.134 3.3 
27111 306 4 24 13.2679 3.3 
27102 306 4 25.5 14.134 3.3 
27113 306 4 26 13.2679 3.3 
27114 306 4 26.7321 14 3.3 
27109 306 4 23 15 3.3 
27100 306 4 24 15 3.3 
27096 306 4 25 15 3.3 
27097 306 4 26 15 3.3 
27103 306 4 27 15 3.3 
27108 306 4 23.2679 16 3.3 
27099 306 4 24.5 15.866 3.3 
27098 306 4 25.5 15.866 3.3 
27104 306 4 26.7321 16 3.3 
27107 306 4 24 16.7321 3.3 
27105 306 4 26 16.7321 3.3 
27131 307 4 25 13 4.4 
27129 307 4 23.2679 14 4.4 
27120 307 4 24.5 14.134 4.4 
27130 307 4 24 13.2679 4.4 
27121 307 4 25.5 14.134 4.4 
27132 307 4 26 13.2679 4.4 
27133 307 4 26.7321 14 4.4 
27128 307 4 23 15 4.4 
27119 307 4 24 15 4.4 
27115 307 4 25 15 4.4 
27116 307 4 26 15 4.4 
27122 307 4 27 15 4.4 
27127 307 4 23.2679 16 4.4 
27118 307 4 24.5 15.866 4.4 
27117 307 4 25.5 15.866 4.4 
27123 307 4 26.7321 16 4.4 
27126 307 4 24 16.7321 4.4 
27124 307 4 26 16.7321 4.4 
27226 312 4 25 13 8.8 
27224 312 4 23.2679 14 8.8 
27215 312 4 24.5 14.134 8.8 
27225 312 4 24 13.2679 8.8 
27216 312 4 25.5 14.134 8.8 
27227 312 4 26 13.2679 8.8 
27228 312 4 26.7321 14 8.8 
27223 312 4 23 15 8.8 
27214 312 4 24 15 8.8 
27210 312 4 25 15 8.8 
27211 312 4 26 15 8.8 
27217 312 4 27 15 8.8 
27222 312 4 23.2679 16 8.8 
27213 312 4 24.5 15.866 8.8 
27212 312 4 25.5 15.866 8.8 
27218 312 4 26.7321 16 8.8 
27221 312 4 24 16.7321 8.8 
27219 312 4 26 16.7321 8.8 
27397 321 4 25 13 13.2 
27395 321 4 23.2679 14 13.2 
27386 321 4 24.5 14.134 13.2 
27396 321 4 24 13.2679 13.2 
27387 321 4 25.5 14.134 13.2 
27398 321 4 26 13.2679 13.2 
27399 321 4 26.7321 14 13.2 
27394 321 4 23 15 13.2 
27385 321 4 24 15 13.2 
27381 321 4 25 15 13.2 
27382 321 4 26 15 13.2 
27388 321 4 27 15 13.2 
27393 321 4 23.2679 16 13.2 
27384 321 4 24.5 15.866 13.2 
27383 321 4 25.5 15.866 13.2 
27389 321 4 26.7321 16 13.2 
27392 321 4 24 16.7321 13.2 
27390 321 4 26 16.7321 13.2 
27492 326 4 25 13 16.5 
27490 326 4 23.2679 14 16.5 
27481 326 4 24.5 14.134 16.5 
27491 326 4 24 13.2679 16.5 
27482 326 4 25.5 14.134 16.5 
27493 326 4 26 13.2679 16.5 
27494 326 4 26.7321 14 16.5 
27489 326 4 23 15 16.5 
27480 326 4 24 15 16.5 
27476 326 4 25 15 16.5 
27477 326 4 26 15 16.5 
27483 326 4 27 15 16.5 
27488 326 4 23.2679 16 16.5 
27479 326 4 24.5 15.866 16.5 
27478 326 4 25.5 15.866 16.5 
27484 326 4 26.7321 16 16.5 
27487 326 4 24 16.7321 16.5 
27485 326 4 26 16.7321 16.5 
27549 329 4 25 13 18.7 
27547 329 4 23.2679 14 18.7 
27538 329 4 24.5 14.134 18.7 
27548 329 4 24 13.2679 18.7 
27539 329 4 25.5 14.134 18.7 
27550 329 4 26 13.2679 18.7 
27551 329 4 26.7321 14 18.7 
27546 329 4 23 15 18.7 
27537 329 4 24 15 18.7 
27533 329 4 25 15 18.7 
27534 329 4 26 15 18.7 
27540 329 4 27 15 18.7 
27545 329 4 23.2679 16 18.7 
27536 329 4 24.5 15.866 18.7 
27535 329 4 25.5 15.866 18.7 
27541 329 4 26.7321 16 18.7 
27544 329 4 24 16.7321 18.7 
27542 329 4 26 16.7321 18.7 
27587 331 4 25 13 19.8 
27585 331 4 23.2679 14 19.8 
27576 331 4 24.5 14.134 19.8 
27586 331 4 24 13.2679 19.8 
27577 331 4 25.5 14.134 19.8 
27588 331 4 26 13.2679 19.8 
27589 331 4 26.7321 14 19.8 
27584 331 4 23 15 19.8 
27575 331 4 24 15 19.8 
27571 331 4 25 15 19.8 
27572 331 4 26 15 19.8 
27578 331 4 27 15 19.8 
27583 331 4 23.2679 16 19.8 
27574 331 4 24.5 15.866 19.8 
27573 331 4 25.5 15.866 19.8 
27579 331 4 26.7321 16 19.8 
27582 331 4 24 16.7321 19.8 
27580 331 4 26 16.7321 19.8 
27106 306 4 25 17 3.3 
27125 307 4 25 17 4.4 
27220 312 4 25 17 8.8 
27391 321 4 25 17 13.2 
27486 326 4 25 17 16.5 
27543 329 4 25 17 18.7 
27581 331 4 25 17 19.8 
27168 309 4 24 23.2679 6.6 
27169 309 4 25 23 6.6 
27170 309 4 26 23.2679 6.6 
27167 309 4 23.2679 24 6.6 
27158 309 4 24.5 24.134 6.6 
27159 309 4 25.5 24.134 6.6 
27171 309 4 26.7321 24 6.6 
27166 309 4 23 25 6.6 
27157 309 4 24 25 6.6 
27153 309 4 25 25 6.6 
27154 309 4 26 25 6.6 
27160 309 4 27 25 6.6 
27165 309 4 23.2679 26 6.6 
27156 309 4 24.5 25.866 6.6 
27155 309 4 25.5 25.866 6.6 
27161 309 4 26.7321 26 6.6 
27164 309 4 24 26.7321 6.6 
27163 309 4 25 27 6.6 
27162 309 4 26 26.7321 6.6 
27244 313 4 24 23.2679 8.8 
27245 313 4 25 23 8.8 
27246 313 4 26 23.2679 8.8 
27243 313 4 23.2679 24 8.8 
27234 313 4 24.5 24.134 8.8 
27235 313 4 25.5 24.134 8.8 
27247 313 4 26.7321 24 8.8 
27242 313 4 23 25 8.8 
27233 313 4 24 25 8.8 
27229 313 4 25 25 8.8 
27230 313 4 26 25 8.8 
27236 313 4 27 25 8.8 
27241 313 4 23.2679 26 8.8 
27232 313 4 24.5 25.866 8.8 
27231 313 4 25.5 25.866 8.8 
27237 313 4 26.7321 26 8.8 
27240 313 4 24 26.7321 8.8 
27239 313 4 25 27 8.8 
27238 313 4 26 26.7321 8.8 
27567 330 4 24 23.2679 18.7 
27568 330 4 25 23 18.7 
27569 330 4 26 23.2679 18.7 
27566 330 4 23.2679 24 18.7 
27557 330 4 24.5 24.134 18.7 
27558 330 4 25.5 24.134 18.7 
27570 330 4 26.7321 24 18.7 
27565 330 4 23 25 18.7 
27556 330 4 24 25 18.7 
27552 330 4 25 25 18.7 
27553 330 4 26 25 18.7 
27559 330 4 27 25 18.7 
27564 330 4 23.2679 26 18.7 
27555 330 4 24.5 25.866 18.7 
27554 330 4 25.5 25.866 18.7 
27560 330 4 26.7321 26 18.7 
27563 330 4 24 26.7321 18.7 
27562 330 4 25 27 18.7 
27561 330 4 26 26.7321 18.7 
27643 334 4 24 23.2679 20.9 
27644 334 4 25 23 20.9 
27645 334 4 26 23.2679 20.9 
27642 334 4 23.2679 24 20.9 
27633 334 4 24.5 24.134 20.9 
27634 334 4 25.5 24.134 20.9 
27646 334 4 26.7321 24 20.9 
27641 334 4 23 25 20.9 
27632 334 4 24 25 20.9 
27628 334 4 25 25 20.9 
27629 334 4 26 25 20.9 
27635 334 4 27 25 20.9 
27640 334 4 23.2679 26 20.9 
27631 334 4 24.5 25.866 20.9 
27630 334 4 25.5 25.866 20.9 
27636 334 4 26.7321 26 20.9 
27639 334 4 24 26.7321 20.9 
27638 334 4 25 27 20.9 
27637 334 4 26 26.7321 20.9 
27738 339 4 24 23.2679 24.2 
27739 339 4 25 23 24.2 
27740 339 4 26 23.2679 24.2 
27737 339 4 23.2679 24 24.2 
27728 339 4 24.5 24.134 24.2 
27729 339 4 25.5 24.134 24.2 
27741 339 4 26.7321 24 24.2 
27736 339 4 23 25 24.2 
27727 339 4 24 25 24.2 
27723 339 4 25 25 24.2 
27724 339 4 26 25 24.2 
27730 339 4 27 25 24.2 
27735 339 4 23.2679 26 24.2 
27726 339 4 24.5 25.866 24.2 
27725 339 4 25.5 25.866 24.2 
27731 339 4 26.7321 26 24.2 
27734 339 4 24 26.7321 24.2 
27733 339 4 25 27 24.2 
27732 339 4 26 26.7321 24.2 
ITEM: TIMESTEP
100000
ITEM: NUMBER OF ATOMS
950
ITEM: BOX BOUNDS pp pp pp
0.0000000000000000e+00 3.4000000000000000e+01
0.0000000000000000e+00 3.4000000000000000e+01
0.0000000000000000e+00 3.4000000000000000e+01
ITEM: ATOMS id mol type x y z 
27070 304 4 3.61773 4.47547 0.936729 
27071 304 4 4.59427 4.26111 0.668005 
27069 304 4 2.86828 4.49641 1.65065 
27062 304 4 4.52976 4.00736 1.63312 
27058 304 4 4.46526 3.75362 2.59824 
27063 304 4 5.32825 3.63597 2.10692 
27068 304 4 2.54674 4.31832 2.61848 
27061 304 4 3.66677 4.12501 2.12445 
27059 304 4 4.40075 3.49988 3.56336 
27064 304 4 5.26375 3.38223 3.07204 
27067 304 4 2.73927 3.98892 3.58089 
27060 304 4 3.60226 3.87127 3.08957 
27066 304 4 3.39427 3.59647 4.28 
27065 304 4 4.33625 3.24613 4.52848 
27076 304 4 5.31279 3.03177 4.25975 
27072 304 4 5.53624 3.91077 0.916487 
27338 318 4 5.46842 4.24476 11.9702 
27337 318 4 5.61078 4.51285 12.96 
27673 336 4 5.19496 3.50092 21.9404 
27679 336 4 2.79492 0.932563 20.0317 
27680 336 4 3.67571 0.411202 20.1872 
27681 336 4 4.64203 0.373632 20.5568 
27678 336 4 2.23568 1.79802 20.1318 
27670 336 4 3.39493 1.57465 20.5088 
27677 336 4 2.14783 2.77567 20.4609 
27669 336 4 3.07139 2.4962 20.7235 
27682 336 4 5.43496 0.829922 21.0414 
27671 336 4 4.31848 1.29519 20.7714 
27666 336 4 3.99494 2.21674 20.986 
27672 336 4 4.91849 1.93727 21.2486 
27676 336 4 2.55492 3.60356 20.9306 
27668 336 4 3.6714 3.13829 21.2006 
27667 336 4 4.59495 2.85883 21.4632 
27675 336 4 3.34785 4.05985 21.4153 
27674 336 4 4.31417 4.02228 21.7849 
27813 343 4 5.64342 1.00933 26.306 
27811 343 4 3.86366 0.972372 27.2177 
27812 343 4 4.63131 1.00362 26.5237 
27802 343 4 4.5449 0.916164 28.2514 
27810 343 4 3.54616 0.923976 28.2018 
27803 343 4 5.08748 0.955984 27.4123 
27799 343 4 5.54364 0.908353 28.301 
27809 343 4 3.76388 0.871393 29.2126 
27801 343 4 5.00107 0.868533 29.14 
27808 343 4 4.45849 0.828714 29.9791 
27807 343 4 5.44386 0.807374 30.2959 
27711 338 4 3.77906 11.2099 22.6515 
27722 338 4 2.95891 10.8188 23.1476 
27721 338 4 2.10684 10.9573 23.7191 
27300 316 4 3.78605 16.8833 9.41222 
27712 338 4 4.34755 12.0259 22.3636 
27713 338 4 4.51204 13.048 22.3611 
27714 338 4 4.22846 14.0024 22.6447 
27710 338 4 2.47333 11.8763 23.5739 
27705 338 4 3.30944 12.0027 23.0401 
27704 338 4 2.83981 12.7954 23.4288 
27706 338 4 3.67593 12.9217 22.8949 
27707 338 4 3.2063 13.7144 23.2836 
27716 338 4 2.72072 14.7719 23.7099 
27715 338 4 3.57279 14.6334 23.1384 
27720 338 4 1.45117 11.5883 24.2128 
27719 338 4 1.16759 12.5428 24.4964 
27709 338 4 2.0037 12.6691 23.9626 
27718 338 4 1.33208 13.5649 24.4939 
27708 338 4 2.37019 13.5881 23.8174 
27717 338 4 1.90056 14.3808 24.206 
27928 349 4 0.250429 13.0007 31.1931 
27929 349 4 1.15472 12.6042 30.8819 
27930 349 4 2.18988 12.6156 30.8928 
27931 349 4 3.07853 13.0317 31.2228 
27918 349 4 0.946774 13.5635 31.6385 
27913 349 4 1.64312 14.1263 32.0839 
27919 349 4 1.9165 13.3709 31.4883 
27914 349 4 2.61284 13.9337 31.9337 
27920 349 4 3.58257 13.7412 31.7835 
27917 349 4 0.673396 14.3189 32.234 
27916 349 4 1.36974 14.8817 32.6794 
27915 349 4 2.33947 14.6891 32.5292 
27921 349 4 3.56693 14.5538 32.4247 
27925 349 4 0.207709 15.2209 32.945 
27922 349 4 3.03581 15.2519 32.9746 
27924 349 4 1.09636 15.6371 33.275 
27923 349 4 2.13152 15.6484 33.2858 
27299 316 4 2.81596 17.1861 9.21457 
27298 316 4 2.10996 17.9393 9.13722 
27297 316 4 1.85725 18.9413 9.20089 
27296 316 4 2.12552 19.9234 9.38852 
27301 316 4 4.76031 17.1122 9.6772 
27302 316 4 5.47769 17.8114 9.93852 
27290 316 4 3.30878 18.0267 9.43905 
27291 316 4 4.28096 17.9898 9.67036 
27289 316 4 2.82943 18.9043 9.43221 
27286 316 4 3.8016 18.8674 9.66352 
27292 316 4 4.77378 18.8305 9.89484 
27287 316 4 4.29443 19.7081 9.888 
27288 316 4 3.32225 19.745 9.65668 
27295 316 4 2.84289 20.6226 9.64984 
27304 316 4 5.49324 19.7955 10.1898 
27293 316 4 4.78725 20.5488 10.1125 
27294 316 4 3.81716 20.8515 9.91482 
27441 324 4 2.40446 22.6577 14.8721 
27446 324 4 3.5399 21.6077 16.4871 
27454 324 4 3.2623 20.3978 13.2531 
27453 324 4 2.68526 21.0975 12.7538 
27452 324 4 2.15116 21.9844 12.7549 
27455 324 4 3.72767 20.0728 14.1189 
27443 324 4 2.76539 21.4468 13.6874 
27442 324 4 2.32432 22.3084 13.9385 
27447 324 4 3.0058 22.4946 16.4882 
27456 324 4 3.95667 20.2095 15.1192 
27444 324 4 3.2866 20.9344 14.3699 
27438 324 4 2.84553 21.796 14.621 
27445 324 4 3.88795 20.7713 15.986 
27439 324 4 3.36674 21.2837 15.3035 
27440 324 4 2.92567 22.1453 15.5546 