ITEM: TIMESTEP
7000000
ITEM: NUMBER OF ATOMS
950
ITEM: BOX BOUNDS pp pp pp
7.2066043876332486e-01 3.3279339561239894e+01
7.2066043876332486e-01 3.3279339561239894e+01
7.2066043876332486e-01 3.3279339561239894e+01
ITEM: ATOMS id mol type x y z 
3210 0 5 0.737235 3.91696 0.788927 
11745 0 5 5.17015 2.61466 4.50112 
26112 0 5 1.41531 5.61995 9.34837 
13251 0 5 1.72003 6.05294 13.3028 
10242 0 5 6.01235 5.44426 12.5345 
14591 0 5 3.80308 5.67226 14.2082 
1886 0 5 5.36447 2.38516 16.4837 
14473 0 5 1.37868 2.62266 15.221 
21562 0 5 5.91646 2.95024 17.5797 
23848 0 5 5.29284 5.93555 18.4962 
7282 0 5 4.9141 1.91379 19.3352 
12924 0 5 2.30009 3.02924 19.5875 
7749 0 5 2.89659 5.56235 19.818 
24920 0 5 4.77422 5.03081 21.8685 
12330 0 5 4.36858 1.93431 23.8346 
15606 0 5 2.39221 5.00495 23.7527 
19214 0 5 3.69153 5.56837 25.8943 
9300 0 5 3.09397 2.54704 28.9858 
25285 0 5 5.69829 5.20629 28.7588 
7287 0 5 4.64093 4.42661 28.4694 
10211 0 5 2.20082 1.59751 30.6842 
22829 0 5 5.51422 1.47857 31.2158 
15427 0 5 1.51487 4.04128 30.3228 
4902 0 5 4.13528 4.44516 30.8103 
26492 0 5 6.08449 4.56291 30.7278 
9136 0 5 5.72701 3.66822 32.5394 
24025 0 5 3.78765 8.63055 2.18026 
2562 0 5 1.03834 6.56582 2.8725 
23777 0 5 2.90267 9.20889 8.02681 
4288 0 5 2.95368 6.44877 11.2557 
2681 0 5 3.58218 7.51052 10.5811 
11320 0 5 5.11237 6.33049 10.536 
21227 0 5 6.0493 6.65347 10.8888 
11249 0 5 3.03193 6.58051 14.5235 
25046 0 5 0.989725 11.1074 21.7018 
22002 0 5 0.962193 6.46821 23.749 
15135 0 5 2.86976 10.9197 22.514 
17912 0 5 1.90722 10.7132 24.6569 
20410 0 5 5.47337 7.34114 27.6599 
26157 0 5 4.59376 8.85847 28.2539 
21035 0 5 3.66345 7.76233 31.5265 
17812 0 5 5.58467 6.24141 31.8184 
18656 0 5 3.54113 8.01926 33.0234 
12302 0 5 4.41973 8.29657 32.2252 
26404 0 5 3.44149 11.7881 1.14483 
8091 0 5 0.8851 14.2861 1.08758 
14622 0 5 4.55641 13.9651 1.33421 
21816 0 5 3.67971 13.6383 3.42864 
14365 0 5 3.94614 13.8918 6.08494 
14856 0 5 2.26995 16.4746 5.27808 
6666 0 5 5.55463 12.8781 7.84214 
25538 0 5 3.28218 15.987 8.50294 
2767 0 5 2.50924 13.9453 10.177 
7441 0 5 1.19991 13.4753 12.0249 
6395 0 5 2.68676 16.1512 12.7331 
15874 0 5 4.32464 13.5241 14.3895 
14326 0 5 2.86303 15.569 13.6794 
20086 0 5 1.4399 13.0806 16.6563 
24944 0 5 3.47735 13.0978 15.4571 
12376 0 5 2.96914 14.8359 16.1262 
8196 0 5 4.4375 13.6886 15.465 
18126 0 5 3.79805 15.589 16.1809 
12971 0 5 2.64356 16.4581 15.317 
12365 0 5 1.09032 13.009 17.541 
409 0 5 0.78335 14.1853 17.1094 
19714 0 5 3.83282 14.875 18.2226 
12127 0 5 2.43751 15.2693 17.8662 
11143 0 5 2.36583 13.1027 19.581 
17345 0 5 3.12821 13.2995 18.9641 
11309 0 5 6.05296 14.5731 21.2716 
4256 0 5 4.28443 16.9402 20.6841 
3676 0 5 0.845785 14.3961 23.5188 
9924 0 5 5.79775 15.2562 23.672 
16271 0 5 2.98857 15.7834 26.495 
24218 0 5 4.65523 16.8788 26.5514 
3143 0 5 3.71593 12.653 28.809 
15991 0 5 5.80649 11.9889 31.2547 
4804 0 5 1.67787 14.1854 30.0601 
12223 0 5 2.78818 15.7118 30.2701 
19115 0 5 5.56773 12.9356 32.3026 
9642 0 5 0.923098 16.2299 32.1856 
6062 0 5 5.85362 20.1014 2.49551 
25544 0 5 2.09087 20.1646 3.74542 
18958 0 5 3.65948 17.0228 5.94929 
8016 0 5 3.23575 18.5651 9.82087 
15889 0 5 1.39465 20.9992 10.6158 
6785 0 5 4.61447 18.2459 12.9075 
19313 0 5 4.18911 20.2539 12.2629 
7109 0 5 4.99225 17.3806 18.7619 
8051 0 5 2.42702 20.2566 18.2109 
24611 0 5 1.78333 21.2379 17.1228 
20994 0 5 2.81553 21.0609 17.4599 
1406 0 5 0.873885 18.2096 19.224 
1527 0 5 2.59205 17.6429 19.656 
15561 0 5 2.11115 21.9616 19.3115 
310 0 5 5.91812 17.2411 22.4115 
16224 0 5 1.32117 19.0544 21.8736 
18106 0 5 5.41559 19.7673 21.1947 
17118 0 5 2.2742 20.409 24.1033 
97 0 5 4.26933 21.0124 23.7671 
20953 0 5 3.77239 21.5061 25.763 
4768 0 5 0.845541 18.2216 27.4241 
743 0 5 4.91598 18.9727 26.714 
14830 0 5 1.72241 18.8389 28.8239 
23764 0 5 2.62317 19.555 28.6636 
16583 0 5 3.19775 21.2339 29.0543 
25720 0 5 2.52109 21.2978 31.8954 
16748 0 5 3.42955 25.1778 0.987839 
18446 0 5 5.01932 26.7515 1.1524 
2463 0 5 3.88342 25.6101 4.19662 
9975 0 5 3.62924 22.8288 6.40587 
21651 0 5 5.06615 24.2915 7.4186 
18840 0 5 4.68859 25.2866 7.60445 
16225 0 5 5.71866 27.6584 9.53914 
4629 0 5 2.57557 27.2861 11.2184 
21599 0 5 3.70194 23.0962 12.4088 
6227 0 5 1.55809 25.121 13.5559 
4168 0 5 3.27349 27.6317 14.057 
21286 0 5 4.19021 23.805 16.3965 
51 0 5 3.26722 24.2759 16.67 
11735 0 5 5.07151 24.8141 17.1633 
4469 0 5 2.38889 27.499 17.7702 
499 0 5 3.54355 22.9592 19.7887 
22037 0 5 1.93275 25.2167 20.2711 
4653 0 5 3.76432 25.5003 20.9072 
26367 0 5 2.68731 24.8873 22.9878 
26652 0 5 5.21427 27.7279 24.1794 
5664 0 5 2.39564 25.6222 25.0484 
22524 0 5 3.46367 26.1367 25.2088 
7196 0 5 3.83749 23.6218 26.9735 
25820 0 5 4.53992 27.2986 27.2982 
14906 0 5 4.69265 27.8088 26.1415 
6605 0 5 3.17169 25.6404 30.8663 
23711 0 5 2.0271 27.1191 33.0526 
21674 0 5 0.906607 26.6125 32.3094 
18197 0 5 3.19075 31.5583 3.42488 
14846 0 5 4.95942 30.2633 5.50965 
12466 0 5 0.823987 32.1625 5.72188 
7757 0 5 5.12756 28.6719 7.67091 
5115 0 5 4.37907 32.7697 7.40994 
20282 0 5 1.13285 31.0345 12.8484 
9350 0 5 5.79651 31.2916 16.8941 
25644 0 5 1.77634 32.6692 16.7811 
19075 0 5 3.64914 32.9608 15.5048 
10327 0 5 1.72148 28.8757 17.2446 
23788 0 5 2.19881 31.4682 20.1883 
13539 0 5 3.19471 28.2515 24.2347 
16136 0 5 5.78654 29.9927 24.028 
6505 0 5 5.59776 30.649 24.9674 
23343 0 5 2.74033 30.3647 27.7966 
22530 0 5 2.92335 32.7197 27.2342 
9149 0 5 1.38513 32.1073 30.5653 
4886 0 5 5.96061 31.7889 31.5455 
15953 0 5 6.23018 1.38565 2.31128 
5121 0 5 9.60368 0.873191 0.852171 
21295 0 5 11.2201 5.44465 1.42296 
9254 0 5 9.73215 1.69114 3.87905 
16188 0 5 8.24912 2.656 2.61038 
17379 0 5 7.61663 2.72123 8.08255 
8148 0 5 9.36733 5.20421 8.33121 
12954 0 5 10.3687 4.6699 8.5306 
7746 0 5 9.33941 1.49734 9.98243 
9057 0 5 9.37086 1.85652 11.2172 
25808 0 5 11.0725 3.03093 11.9444 
26644 0 5 8.68747 4.07704 14.6569 
9423 0 5 10.1542 5.85829 13.5797 
6357 0 5 10.0134 2.1101 16.6905 
18795 0 5 7.68038 5.62588 15.5916 
14227 0 5 11.1613 5.43997 16.5134 
14061 0 5 7.44932 1.73625 17.7902 
23342 0 5 7.30538 0.722045 17.9162 
15714 0 5 8.25869 4.26153 17.8574 
15692 0 5 8.60913 2.14642 19.5018 
23937 0 5 7.04084 4.3179 20.1359 
5110 0 5 8.1938 2.67266 23.5978 
2439 0 5 10.7254 2.80335 23.0681 
15234 0 5 9.18097 2.32225 24.3923 
4364 0 5 10.4589 2.93904 25.6532 
6361 0 5 8.90564 5.4333 25.6172 
7858 0 5 7.7987 4.00551 26.9218 
10535 0 5 10.9165 5.95298 27.7017 
20968 0 5 7.17518 2.45298 29.0719 
3427 0 5 9.84251 2.45174 29.5117 
3406 0 5 9.98397 1.91425 28.5252 
26868 0 5 11.3958 5.96815 29.2846 
15224 0 5 10.8053 5.1817 29.2931 
2214 0 5 6.46664 5.48311 30.1617 
7490 0 5 9.48768 7.72469 1.25798 
2752 0 5 6.94346 8.72149 1.2262 
25218 0 5 6.81312 9.80235 1.31225 
25850 0 5 10.9484 8.15808 3.24738 
221 0 5 6.61175 11.0494 2.96225 
4561 0 5 9.3301 8.74911 6.47508 
2443 0 5 8.83867 11.4574 8.7799 
14944 0 5 8.50933 10.5093 10.3792 
20459 0 5 6.72986 7.50788 12.4476 
975 0 5 10.1683 7.10265 12.9098 
905 0 5 8.73799 10.1905 11.9573 
17328 0 5 10.9561 7.68773 14.3233 
3152 0 5 11.4237 9.48518 15.6059 
6248 0 5 9.92597 8.30616 16.2862 
9196 0 5 8.47129 10.7111 17.3537 
18330 0 5 8.55764 10.34 18.7213 
6418 0 5 7.37658 8.20982 20.0331 
17745 0 5 10.7334 10.403 19.8458 
11622 0 5 6.24244 10.4358 23.7609 
24565 0 5 7.55887 7.12565 27.2306 
4813 0 5 8.30284 6.9859 26.0633 
3196 0 5 9.64717 11.2051 27.5994 
26681 0 5 6.67188 9.79417 28.0633 
16715 0 5 8.16554 6.37286 32.4949 
15883 0 5 10.5203 6.31129 32.6822 
25678 0 5 8.81995 10.8954 31.9099 
9906 0 5 7.05376 13.2373 1.15965 
5125 0 5 8.74255 14.5235 1.72131 
4489 0 5 9.07039 15.1352 2.57653 
21783 0 5 10.6672 16.785 3.12676 
16753 0 5 11.1139 15.3711 4.45477 
3368 0 5 7.456 12.7857 6.81184 
16674 0 5 10.2163 13.2938 6.43807 
4264 0 5 10.9334 12.5741 8.23431 
3141 0 5 8.18587 13.9479 8.80439 
20463 0 5 9.47865 13.737 8.41028 
13819 0 5 11.2454 12.4259 11.1437 
1086 0 5 7.21372 14.6657 10.6502 
6568 0 5 10.4532 16.2816 10.1692 
5026 0 5 7.31832 15.633 12.3312 
10482 0 5 6.63705 16.3299 13.072 
18847 0 5 7.4645 14.7198 15.0576 
8542 0 5 8.74868 15.2842 14.0712 
23803 0 5 11.235 13.5374 18.0305 
4635 0 5 8.092 15.633 17.1507 
388 0 5 10.0931 16.8648 18.5636 
15076 0 5 6.34338 14.4059 19.4166 
14252 0 5 10.6252 14.5344 19.3177 
3309 0 5 11.4079 12.643 22.3834 
18723 0 5 6.76562 16.5193 22.3545 
13177 0 5 8.20184 15.6127 20.8197 
25652 0 5 9.27045 13.1412 23.0525 
2563 0 5 7.73624 13.6759 23.6089 
7273 0 5 6.54247 14.1692 23.2588 
19333 0 5 10.6437 14.198 23.2772 
5456 0 5 9.52009 15.7788 22.7953 
16308 0 5 9.25241 16.2919 27.578 
3285 0 5 8.40014 15.7846 26.9911 
17637 0 5 8.84147 14.6053 28.5548 
24210 0 5 11.5286 14.5353 28.9099 
6050 0 5 6.63162 11.7382 30.3692 
20349 0 5 7.37868 15.7968 31.0789 
16660 0 5 6.90737 16.769 30.4202 
9612 0 5 6.85938 19.423 1.96073 
21589 0 5 10.2509 20.0149 2.96662 
3421 0 5 8.75654 21.2547 3.85602 
24416 0 5 10.1959 18.8455 10.5635 
19254 0 5 6.43173 22.1359 11.0102 
7173 0 5 6.418 17.3285 12.5001 
373 0 5 7.16122 17.3798 24.9448 
7529 0 5 9.99025 17.3458 25.9962 
18319 0 5 11.1336 21.7707 24.7018 
7795 0 5 10.6216 20.758 24.7172 
22202 0 5 8.53176 17.961 28.3571 
21789 0 5 6.70363 21.2678 28.7856 
14779 0 5 6.26163 19.7248 30.3552 
21350 0 5 8.02226 19.7123 30.7933 
696 0 5 9.63673 17.2979 32.267 
22644 0 5 10.5371 22.6147 3.29826 
15430 0 5 6.17185 25.9334 3.27604 
20799 0 5 9.28129 27.2132 3.89762 
7995 0 5 9.24334 24.1064 6.35567 
11042 0 5 7.92375 27.8129 7.64453 
5025 0 5 10.8749 24.1015 8.90665 
25521 0 5 8.33278 25.7699 9.14778 
17727 0 5 7.00113 23.0528 9.99232 
6582 0 5 11.3465 24.0461 11.3075 
12450 0 5 10.8123 23.2989 12.7065 
11625 0 5 10.6831 23.2456 14.6889 
11691 0 5 10.8117 24.1103 16.2491 
7842 0 5 7.65343 25.4261 15.3186 
12960 0 5 7.28212 22.6904 18.7314 
17900 0 5 10.194 26.5556 20.0698 
1941 0 5 8.45258 26.8715 27.3527 
15711 0 5 10.0517 27.0647 27.3283 
21853 0 5 7.84654 25.3161 28.6858 
25789 0 5 10.6724 26.6595 29.0243 
898 0 5 10.5405 27.2677 28.2056 
20360 0 5 7.24654 27.7889 31.2989 
6399 0 5 10.7496 26.7726 30.1405 
2350 0 5 7.47881 25.5584 32.0781 
2527 0 5 11.2976 29.1271 3.68268 
17823 0 5 9.71695 29.0408 4.72325 
15607 0 5 7.06332 29.5477 9.1865 
178 0 5 8.66887 29.1319 10.7741 
4515 0 5 10.5652 30.1582 10.4581 
18949 0 5 11.0307 32.9145 14.4157 
12432 0 5 9.61115 28.9646 15.3102 
3632 0 5 9.01545 30.8463 18.2009 
3390 0 5 10.9907 28.3779 19.68 
12344 0 5 8.62033 30.8334 19.2201 
2133 0 5 8.68003 28.9049 22.0179 
21395 0 5 9.1935 33.1245 21.7113 
19138 0 5 9.35995 32.542 20.8185 
1001 0 5 11.4428 29.3783 23.6307 
6811 0 5 8.03329 28.9404 25.7842 
5099 0 5 8.15145 32.974 24.509 
18470 0 5 11.391 32.8861 24.9062 
1056 0 5 9.2477 32.2864 28.5821 
24594 0 5 9.20906 30.2546 30.5029 
20178 0 5 6.71415 29.8289 32.2348 
9972 0 5 14.5497 4.23711 1.76237 
12101 0 5 14.325 3.11498 3.44118 
9909 0 5 14.1789 5.57754 3.32222 
14353 0 5 15.0886 5.19689 3.23356 
1929 0 5 12.3521 2.41529 4.75332 
26078 0 5 16.839 2.79826 4.69333 
7968 0 5 16.2774 4.72016 4.77665 
12720 0 5 11.7504 1.3348 6.63001 
18078 0 5 15.4187 0.852213 7.12732 
19074 0 5 14.6245 4.91669 7.85086 
10382 0 5 13.7791 4.94813 7.19227 
12805 0 5 12.95 3.96486 11.9683 
11014 0 5 13.4519 5.18533 12.0466 
16981 0 5 16.4036 5.33672 12.4271 
10550 0 5 14.9607 0.95677 13.419 
3195 0 5 12.7727 4.98982 14.9103 
9239 0 5 15.6177 5.82796 15.9661 
9047 0 5 14.9664 0.966213 18.3186 
16765 0 5 16.5494 0.844301 17.0865 
3190 0 5 16.6899 2.07097 17.5525 
22563 0 5 14.867 3.36925 17.1343 
15340 0 5 16.03 0.868941 18.941 
2827 0 5 15.4628 1.43823 20.7168 
6585 0 5 16.4783 1.81669 20.6331 
22022 0 5 13.31 2.77961 21.0218 
14384 0 5 13.5234 3.706 20.7249 
4109 0 5 14.5322 5.05762 21.2729 
13283 0 5 14.0446 1.87582 23.9062 
24879 0 5 11.9921 1.16635 25.3735 
22094 0 5 16.3076 5.05845 25.048 
14655 0 5 11.9261 1.34087 27.827 
26807 0 5 15.0612 2.51105 31.8124 
8353 0 5 14.0565 3.83622 32.8513 
17223 0 5 15.7943 3.29418 31.584 
14610 0 5 12.273 6.22966 1.07703 
22245 0 5 12.59 9.47995 1.80677 
7267 0 5 14.9342 9.04016 2.22194 
4371 0 5 16.6649 6.86773 3.57166 
26743 0 5 11.9814 8.16195 2.98813 
24961 0 5 15.6082 11.0849 3.27561 
7007 0 5 15.3917 8.16729 5.67934 
6233 0 5 13.0623 11.3432 4.6825 
20194 0 5 16.3987 8.08251 8.69756 
12962 0 5 12.1487 10.1708 9.03211 
9161 0 5 14.6917 10.4497 8.99204 
4676 0 5 15.6729 9.10557 11.4998 
12972 0 5 11.6824 10.633 11.5428 
3914 0 5 14.2442 7.77312 14.0395 
19994 0 5 13.8505 6.60916 13.812 
5904 0 5 14.1315 9.72997 16.971 
10695 0 5 14.7353 10.496 16.2062 
6881 0 5 14.8084 7.23442 19.0853 
13911 0 5 16.6587 8.19003 21.632 
2355 0 5 15.3133 6.45966 23.7821 
23892 0 5 16.0856 9.3801 23.8396 
23947 0 5 12.7127 6.7059 24.7873 
5350 0 5 13.7806 11.3191 27.0897 
5133 0 5 12.4253 8.04203 29.2249 
7996 0 5 12.7787 9.04657 28.4525 
25991 0 5 12.6694 9.6705 32.3173 
22836 0 5 16.3811 12.7744 2.32772 
17484 0 5 12.7043 12.2974 2.60854 
9834 0 5 16.0809 14.6754 4.18044 
19433 0 5 16.3524 15.1805 5.01609 
26847 0 5 13.5252 16.6184 5.35145 
14081 0 5 12.54 12.1892 9.45104 
3067 0 5 12.7672 12.4732 13.3162 
25222 0 5 12.9795 12.7413 14.439 
24845 0 5 12.5764 11.888 16.38 
6835 0 5 12.5431 14.3 17.9047 
4885 0 5 16.5176 14.4998 19.3075 
19662 0 5 12.218 15.2978 19.2147 
16563 0 5 14.6325 16.6744 20.3661 
1905 0 5 12.6228 15.3482 21.0842 
5469 0 5 16.1249 16.955 21.4094 
13572 0 5 16.3263 14.0934 22.7127 
21496 0 5 13.6644 12.7262 24.2516 
16215 0 5 13.1756 13.4603 24.8949 
23763 0 5 15.56 13.5842 24.5577 
10722 0 5 14.1669 14.8573 28.3309 
17210 0 5 14.3536 14.89 30.1879 
24592 0 5 12.2657 15.2829 30.5088 
16181 0 5 14.1845 15.7259 32.4659 
18792 0 5 16.8201 18.7693 1.63594 
18680 0 5 14.6904 20.5704 1.85936 
2959 0 5 14.1032 19.8056 1.02636 
22841 0 5 16.3347 20.3394 1.2266 
14232 0 5 15.4466 17.8402 4.34136 
11746 0 5 16.0797 19.1311 6.8061 
11712 0 5 15.2942 19.1271 8.1771 
11581 0 5 16.9566 20.4746 9.55872 
5405 0 5 15.8247 20.1179 8.8568 
5646 0 5 12.3792 21.7069 8.49042 
15457 0 5 16.1153 17.5667 10.9849 
19047 0 5 12.0571 20.3132 11.7315 
21341 0 5 16.719 22.2891 12.0562 
11542 0 5 11.9889 18.4528 14.1541 
16277 0 5 13.8155 20.5254 13.5313 
14349 0 5 14.5434 19.6928 15.67 
3052 0 5 15.522 18.9162 15.8378 
13738 0 5 16.0558 17.9845 17.4845 
7593 0 5 15.1315 19.9776 20.2636 
14325 0 5 12.8892 21.8072 20.077 
25065 0 5 12.401 18.0043 20.8656 
8106 0 5 13.9927 22.0555 22.1727 
20762 0 5 15.3575 17.7887 22.6863 
22006 0 5 16.2501 19.5497 26.7948 
26332 0 5 14.7126 21.0552 27.3671 
23017 0 5 15.8187 21.2567 26.1099 
22846 0 5 13.5198 17.3775 28.3221 
19382 0 5 12.5201 20.163 28.951 
10456 0 5 16.506 19.222 28.9987 
4221 0 5 13.8927 21.7516 28.1827 
4808 0 5 15.8301 20.9214 29.2904 
21642 0 5 16.1198 17.5353 31.0477 
9871 0 5 15.4346 18.8132 29.9419 
10227 0 5 16.0097 19.9298 30.984 
22812 0 5 15.6425 23.9167 7.64537 
11307 0 5 11.7878 23.8544 9.42207 
14231 0 5 15.0411 23.3041 11.134 
12532 0 5 15.4741 24.165 10.7238 
25199 0 5 12.3046 24.7445 11.4382 
22652 0 5 14.8546 25.1712 14.336 
5526 0 5 13.0448 24.0152 16.3933 
5785 0 5 15.0584 24.1261 17.2453 
304 0 5 14.3757 22.7254 17.0148 
4255 0 5 14.1808 24.6102 17.3392 
2883 0 5 12.0264 24.7682 18.8235 
25876 0 5 12.3602 24.0427 21.1239 
4796 0 5 13.909 27.0113 20.7103 
9352 0 5 15.6176 27.3543 23.8223 
18003 0 5 14.0894 24.3309 26.0088 
10367 0 5 15.6379 24.8958 24.865 
24502 0 5 15.1956 26.1504 25.483 
22642 0 5 15.9322 23.9278 27.4989 
1357 0 5 12.5506 27.6768 28.0596 
11626 0 5 16.8312 26.9366 28.0413 
5472 0 5 12.4633 24.3156 30.6924 
16672 0 5 16.5893 24.6168 30.7405 
7845 0 5 13.3602 32.0676 2.08583 
15663 0 5 13.1705 27.8817 3.57892 
25667 0 5 12.3123 28.1163 4.21972 
7780 0 5 12.5784 28.1271 2.7749 
3612 0 5 13.9262 28.1455 3.01667 
1613 0 5 15.1845 31.0265 2.92969 
22621 0 5 11.6063 31.1087 5.06486 
4355 0 5 14.288 30.229 4.84929 
5643 0 5 15.5304 29.7367 4.52447 
11709 0 5 16.8958 30.5526 7.13676 
12539 0 5 15.504 28.8312 10.8683 
10288 0 5 12.4155 31.5577 9.93725 
9753 0 5 13.1779 33.2665 12.3863 
18339 0 5 11.9404 27.939 18.0064 
8605 0 5 12.6808 31.2355 18.1795 
25733 0 5 16.5224 28.3222 21.9829 
16438 0 5 14.0663 30.8289 21.3334 
13163 0 5 16.3106 28.692 25.4832 
24102 0 5 12.0181 30.0263 24.7945 
10229 0 5 12.1397 31.1101 24.7448 
17301 0 5 16.8807 31.3784 26.9386 
8799 0 5 15.4682 31.0112 28.3771 
25298 0 5 11.645 30.2101 30.292 
16383 0 5 16.6992 30.8213 30.9293 
7107 0 5 12.636 32.4011 30.2218 
1349 0 5 13.4801 32.1378 31.0062 
23726 0 5 17.5921 4.36298 1.40164 
1354 0 5 21.7476 5.59444 3.54225 
18349 0 5 22.0302 1.84339 5.79326 
10414 0 5 21.5688 4.03988 6.52546 
9563 0 5 21.6446 5.70584 10.7067 
20090 0 5 20.0867 3.5265 14.2617 
18097 0 5 20.5249 2.85183 15.0728 
22617 0 5 19.4855 4.91553 13.4519 
24417 0 5 22.2404 3.68683 16.568 
25513 0 5 17.6228 1.67196 17.8855 
10053 0 5 18.924 1.74635 18.3931 
3392 0 5 18.6194 3.72974 17.7801 
25620 0 5 19.6341 4.15108 18.0849 
22113 0 5 20.4227 2.83485 19.8812 
16633 0 5 21.431 1.6058 22.1803 
6793 0 5 20.268 4.84319 21.8432 
14108 0 5 19.9846 3.99759 23.5496 
5264 0 5 18.9245 4.08505 22.6274 
4734 0 5 20.7774 6.05727 23.2727 
4821 0 5 17.422 3.53062 26.0388 
5386 0 5 18.9198 4.3325 27.0747 
24765 0 5 22.2495 1.80543 28.1774 
8797 0 5 17.1406 4.74517 28.6877 
7627 0 5 20.0325 5.13488 29.4811 
23721 0 5 18.3883 3.37976 30.725 
7976 0 5 21.3262 4.17472 31.3581 
26085 0 5 20.6772 1.37946 32.1621 
25660 0 5 21.0439 3.34085 33.2415 
12474 0 5 17.5729 10.7361 4.20422 
12771 0 5 21.4019 7.79891 5.69977 
25131 0 5 17.3686 10.8549 7.85049 
11268 0 5 17.6091 10.271 8.94225 
20221 0 5 17.7537 7.63007 10.3219 
16847 0 5 22.2396 9.00461 13.0066 
15614 0 5 20.6489 9.59568 12.531 
1882 0 5 19.3997 10.7539 12.2479 
2066 0 5 20.8556 8.50041 15.7428 
6284 0 5 22.4029 6.95501 21.0589 
1532 0 5 17.6259 8.97688 22.0452 
302 0 5 18.2665 10.1787 21.3897 
3778 0 5 21.5644 11.4142 20.7262 
10503 0 5 17.1424 8.1054 22.8109 
6830 0 5 22.3581 8.71669 25.5858 
13508 0 5 18.1798 11.2891 25.2737 
10293 0 5 17.5914 7.71 32.2057 
12393 0 5 21.5007 9.9084 32.5252 
17833 0 5 20.3879 15.5014 1.84067 
3350 0 5 20.1113 16.5151 0.943519 
7808 0 5 17.209 12.8042 3.01935 
4828 0 5 20.5179 11.7934 2.76481 
19453 0 5 17.0868 16.7824 4.10726 
22077 0 5 19.3642 12.1737 4.99523 
4226 0 5 21.4658 16.6859 5.58427 
17100 0 5 21.3581 14.7095 6.35674 
20809 0 5 20.5134 15.4276 6.61681 
5279 0 5 20.465 11.6299 12.9597 
2597 0 5 21.7961 11.7288 15.6639 
10950 0 5 17.0333 15.1206 15.4732 
3774 0 5 18.3498 13.9368 17.5333 
26776 0 5 18.9999 14.9637 17.3819 
21672 0 5 21.2609 12.9729 20.1552 
698 0 5 20.1522 16.6837 19.3075 
19228 0 5 19.7315 12.8357 21.9123 
18674 0 5 21.1857 11.6376 21.6837 
4854 0 5 20.3278 13.4917 21.2765 
26851 0 5 20.79 13.6392 24.2968 
11954 0 5 21.8796 14.711 25.6346 
11009 0 5 19.8588 16.2712 25.9829 
7706 0 5 22.0556 16.7056 24.3945 
4697 0 5 19.2328 13.0308 26.5928 
1794 0 5 22.0516 12.856 27.4334 
8848 0 5 21.9956 13.0466 26.3804 
18898 0 5 18.4558 14.2221 28.0982 
23985 0 5 17.7436 12.0583 30.3637 
15816 0 5 21.2188 14.6412 29.741 
18809 0 5 22.3124 14.0872 30.377 
12290 0 5 18.7087 19.5811 2.03275 
9178 0 5 17.2004 20.18 2.07648 
10566 0 5 17.0981 21.1354 1.2462 
5512 0 5 17.8413 17.2785 3.69582 
7625 0 5 19.7892 17.6162 4.06417 
18338 0 5 19.3576 19.3129 2.76437 
7483 0 5 21.97 17.3925 5.8444 
152 0 5 19.0938 18.285 6.86499 
6706 0 5 18.8857 22.2313 7.34578 
25207 0 5 18.3628 20.6907 8.30095 
10457 0 5 17.1268 21.218 8.90602 
20692 0 5 18.2263 22.4187 8.35038 
23986 0 5 18.3803 21.5854 9.00873 
14095 0 5 18.7433 20.573 10.3247 
15941 0 5 21.502 20.5963 10.5193 
18047 0 5 18.4911 18.0858 13.9184 
12230 0 5 19.4407 19.906 13.6561 
1903 0 5 21.94 19.9676 15.4706 
8239 0 5 19.1138 19.1987 17.8991 
18772 0 5 21.6024 18.5097 22.0203 
10718 0 5 18.2319 21.5847 21.9883 
12888 0 5 17.9802 19.9059 22.56 
19173 0 5 19.8907 21.0499 22.6941 
21860 0 5 21.8312 18.849 27.4066 
5406 0 5 19.0144 21.6233 30.1105 
13510 0 5 19.1922 17.0008 33.0393 
9749 0 5 17.2197 20.3117 32.8241 
19063 0 5 19.4762 19.2554 33.0013 
12709 0 5 21.3066 19.2062 32.4758 
5430 0 5 20.3033 24.3012 3.51334 
14251 0 5 19.8667 27.6645 3.92873 
8705 0 5 19.7692 23.5874 5.3194 
5363 0 5 18.0154 26.8459 4.86499 
23023 0 5 20.8536 25.6467 6.67975 
25580 0 5 22.0832 23.1888 8.85957 
1723 0 5 18.9928 25.3451 9.39399 
13474 0 5 17.9108 27.4378 8.55747 
26390 0 5 17.1294 27.5859 9.533 
18678 0 5 18.8321 27.7057 8.79858 
26014 0 5 20.1635 23.2714 11.2529 
8000 0 5 21.2541 22.5837 11.4122 
19039 0 5 18.1266 25.1673 9.97655 
18672 0 5 17.8443 26.0957 11.0973 
23016 0 5 22.2488 26.1424 12.4666 
15723 0 5 19.9179 22.5143 14.4269 
4356 0 5 19.2703 26.2772 13.8757 
23849 0 5 17.1734 26.9054 17.6 
5297 0 5 20.6064 22.9782 19.4268 
15707 0 5 20.6716 27.4986 20.0586 
11376 0 5 18.632 23.9744 26.5323 
24445 0 5 22.0218 27.1366 27.0694 
18762 0 5 22.1103 24.8191 30.9769 
18800 0 5 21.8713 28.4282 1.80945 
26022 0 5 17.8776 31.0354 0.733932 
25727 0 5 19.6072 28.76 3.82822 
8378 0 5 21.4818 28.8165 2.88501 
6804 0 5 18.8583 30.8782 5.12326 
12292 0 5 20.5252 33.0363 6.14046 
6446 0 5 19.1462 28.6999 7.82233 
26730 0 5 19.3365 32.8937 6.30402 
23766 0 5 17.6483 29.0503 8.66803 
19995 0 5 18.3205 31.3028 8.70234 
13638 0 5 17.9521 27.9181 11.1473 
13178 0 5 19.3177 28.6598 11.558 
9579 0 5 22.1672 32.6444 11.1452 
10417 0 5 21.5932 28.2662 12.9289 
21028 0 5 19.3384 29.9822 12.8807 
1597 0 5 20.9223 30.0244 11.9219 
20214 0 5 22.1929 32.1108 12.1257 
1632 0 5 21.614 33.043 11.8724 
21677 0 5 18.618 30.046 15.7174 
10961 0 5 19.1508 30.989 16.1406 
3755 0 5 18.3849 32.6923 16.7209 
9245 0 5 20.168 30.8436 18.2621 
436 0 5 21.2179 30.8945 18.624 
18431 0 5 18.2674 27.9283 22.069 
12237 0 5 21.6493 29.4467 20.7238 
2847 0 5 21.0088 30.919 21.5905 
24435 0 5 20.2454 30.6709 24.4396 
1634 0 5 18.684 28.6512 27.625 
3389 0 5 21.8661 31.3677 26.725 
22089 0 5 19.429 29.5111 29.561 
1074 0 5 21.87 29.4621 31.433 
398 0 5 18.2054 31.0375 31.452 
25127 0 5 19.0857 29.8998 32.8807 
16393 0 5 22.5278 2.88658 1.44453 
22737 0 5 24.6296 2.22668 2.55318 
18496 0 5 22.7529 2.73189 3.30385 
16977 0 5 24.7424 3.45474 2.68003 
26198 0 5 23.8035 5.90894 3.48118 
25925 0 5 22.4463 4.85727 5.07267 
7342 0 5 24.3354 1.0278 6.81975 
20773 0 5 25.3395 0.868734 7.52916 
9230 0 5 25.9512 5.73539 8.97314 
6594 0 5 24.9942 1.11569 12.4193 
22559 0 5 27.3417 4.39971 12.2801 
18337 0 5 24.5133 1.06328 14.0269 
14305 0 5 25.4454 1.9695 13.7126 
4850 0 5 24.6275 1.2399 16.7733 
18973 0 5 24.3757 5.34395 18.7912 
18832 0 5 25.1859 2.45411 19.9906 
13282 0 5 22.5496 0.960653 25.4453 
25945 0 5 23.6476 4.02107 24.2619 
24559 0 5 24.5595 0.747034 29.5918 
14466 0 5 23.3409 3.65775 31.4514 
10592 0 5 27.7265 4.3295 30.3944 
22512 0 5 26.9183 4.7792 29.6823 
13733 0 5 27.7358 1.98085 31.7315 
22298 0 5 26.4808 6.87498 2.31712 
11664 0 5 22.4644 8.59162 2.01553 
16979 0 5 23.3251 10.2651 1.95307 
22520 0 5 27.7275 9.13911 4.2275 
21223 0 5 27.1824 11.0058 8.63794 
5368 0 5 26.6376 7.21173 10.1346 
13104 0 5 22.9916 9.10079 10.4639 
11271 0 5 23.1443 7.32995 13.3489 
18900 0 5 25.9849 6.92061 12.1826 
6402 0 5 23.7293 10.6855 12.1013 
5546 0 5 23.0541 7.34725 14.3397 
26628 0 5 24.0683 7.84875 16.6446 
1934 0 5 24.0814 9.19594 17.8163 
20063 0 5 22.4806 7.99614 18.3044 
22761 0 5 23.8012 8.28391 18.5685 
22149 0 5 27.141 9.7092 18.5256 
25451 0 5 24.363 8.47805 20.4571 
6858 0 5 26.9784 6.42276 21.1755 
3209 0 5 24.8519 8.79371 23.5722 
11748 0 5 25.5959 9.56888 22.9118 
22368 0 5 24.0188 7.74152 27.3056 
8275 0 5 23.7953 10.1209 27.84 
23051 0 5 26.8174 9.84163 29.2024 
4893 0 5 23.8102 6.35325 31.8791 
21346 0 5 24.6139 7.69443 31.6712 
24953 0 5 23.8 12.5888 7.51869 
21963 0 5 25.9366 16.2139 7.19168 
8687 0 5 24.9985 16.8657 6.83822 
3668 0 5 26.5375 11.9987 9.41845 
21033 0 5 25.1844 14.3168 8.99709 
25290 0 5 23.8947 16.0771 8.4818 
24864 0 5 25.9635 15.9122 8.71812 
20855 0 5 27.6343 16.204 8.35328 
7715 0 5 25.9285 15.5068 11.0329 
7645 0 5 26.655 16.4253 11.2487 
21653 0 5 25.1971 16.0029 12.7272 
22645 0 5 23.6757 12.6285 17.3126 
21793 0 5 26.5457 12.7456 17.1167 
10813 0 5 24.2357 14.4202 19.7008 
12561 0 5 27.0032 15.3297 19.8748 
10447 0 5 25.8262 16.1983 24.2952 
13237 0 5 23.1559 15.5702 27.4744 
12700 0 5 22.9119 14.4953 29.1218 
5640 0 5 22.74 11.7562 30.3525 
13419 0 5 23.4334 12.1194 32.3509 
4916 0 5 24.3289 15.0036 32.6323 
21659 0 5 23.6398 18.697 1.23335 
20642 0 5 24.3427 17.7787 2.21254 
23144 0 5 27.0236 21.0142 2.41186 
23322 0 5 27.3735 17.2743 2.60207 
19717 0 5 23.5928 22.1467 3.27301 
14234 0 5 24.3317 19.9796 4.34838 
18482 0 5 23.6428 20.1509 6.49592 
6055 0 5 24.7499 21.7814 6.43324 
7022 0 5 26.3032 21.3043 7.29991 
19965 0 5 22.5715 17.762 9.36585 
20338 0 5 25.947 18.3217 9.47893 
6214 0 5 26.8653 17.3807 12.8673 
4887 0 5 23.9046 19.1071 15.1811 
19531 0 5 25.8001 21.1 14.5276 
23934 0 5 25.8192 18.1257 16.4613 
18588 0 5 26.2831 20.7121 15.7659 
17095 0 5 23.3166 19.7639 18.4837 
13710 0 5 27.6605 19.6428 17.1722 
20756 0 5 23.8883 20.8653 18.2856 
6277 0 5 23.4688 20.5524 20.2423 
18838 0 5 27.0985 21.9963 20.4046 
5597 0 5 25.9245 18.3562 24.1981 
59 0 5 23.6101 20.7224 23.323 
25558 0 5 24.375 20.66 22.5704 
25214 0 5 26.5998 17.8111 27.7542 
9597 0 5 26.656 18.8847 27.0603 
26459 0 5 26.2681 19.0488 28.0215 
384 0 5 27.7835 20.1049 28.3342 
22571 0 5 27.3212 20.2715 30.6243 
1465 0 5 23.2468 19.8141 32.4962 
1718 0 5 24.9465 20.8192 31.6726 
12653 0 5 24.6759 23.2448 1.60725 
24695 0 5 27.2344 23.8822 2.24771 
18964 0 5 23.0298 26.2402 3.91638 
11756 0 5 27.4954 27.0508 5.08655 
7350 0 5 22.7589 26.518 8.55657 
5489 0 5 23.7027 27.0159 9.12054 
22348 0 5 26.2288 25.1336 12.1368 
25728 0 5 22.9349 27.7395 12.0359 
24570 0 5 24.0188 23.5595 16.2309 
14702 0 5 24.5213 25.921 16.5654 
15150 0 5 23.9084 23.7887 20.398 
10549 0 5 24.2165 24.826 19.4487 
25197 0 5 23.0922 24.0838 21.7622 
18534 0 5 27.4228 25.8697 21.935 
11752 0 5 27.2969 26.6077 23.3314 
9968 0 5 25.8548 24.1592 26.9777 
9497 0 5 26.1615 25.036 29.9626 
17740 0 5 23.5312 28.4899 0.772944 
15620 0 5 23.1851 29.8116 1.12176 
17366 0 5 27.5082 32.4099 1.82093 
1538 0 5 24.2964 29.8347 4.01674 
18077 0 5 23.9515 32.5327 3.0033 
963 0 5 22.4398 31.678 3.35302 
23987 0 5 26.9033 32.5278 2.97689 
14918 0 5 24.1699 32.6819 5.32863 
25243 0 5 26.5183 31.219 6.38927 
3713 0 5 27.259 30.0289 6.87704 
16374 0 5 23.0625 32.2819 6.37064 
10381 0 5 23.0953 30.2501 9.41199 
12570 0 5 27.4056 32.705 9.6261 
1049 0 5 26.3152 31.4243 11.0681 
7579 0 5 24.6135 27.9854 13.2547 
2964 0 5 22.9571 30.7721 11.7019 
18072 0 5 24.7299 29.6458 16.752 
21889 0 5 27.1651 28.1352 15.6243 
18081 0 5 24.9492 32.8132 22.1966 
2150 0 5 25.001 31.8608 20.9377 
20033 0 5 25.8607 30.3342 23.7093 
12220 0 5 23.2346 28.4799 24.6385 
8617 0 5 24.2473 28.9671 24.3382 
3053 0 5 24.8174 29.499 25.0189 
18773 0 5 27.002 31.9499 27.8433 
20087 0 5 22.7176 31.4118 28.3791 
25864 0 5 24.75 31.3299 28.7846 
7028 0 5 25.9019 32.5109 30.9925 
6545 0 5 25.4822 29.2798 32.641 
11142 0 5 23.2885 31.2908 31.6863 
20057 0 5 28.4121 2.78535 2.39233 
11600 0 5 29.4514 1.623 3.31717 
4507 0 5 28.6615 2.34565 3.20559 
12699 0 5 32.4377 1.88667 3.62537 
13685 0 5 33.1811 6.06732 3.90349 
13170 0 5 31.2003 1.54174 5.24501 
3710 0 5 31.2631 2.8765 5.15205 
6896 0 5 30.0725 3.08901 8.2378 
26518 0 5 29.0077 4.57841 10.1087 
17127 0 5 29.2951 2.48788 14.9138 
4101 0 5 29.0134 4.59833 15.5326 
25718 0 5 29.5621 4.00989 20.9592 
21675 0 5 30.5678 3.4811 21.719 
13039 0 5 30.6729 4.87128 21.071 
14457 0 5 28.179 3.20023 23.4625 
18826 0 5 28.8277 4.01511 27.5165 
18120 0 5 31.3588 5.4854 27.4808 
25260 0 5 31.9287 2.84167 28.6327 
16770 0 5 32.1831 5.10981 28.8071 
13412 0 5 31.6961 1.70169 31.2928 
14097 0 5 32.193 0.817772 30.9903 
8843 0 5 29.7275 1.77441 32.5337 
18544 0 5 30.3394 5.75427 32.2839 
16191 0 5 31.2193 5.34354 31.644 
792 0 5 30.5972 6.47311 1.3904 
19249 0 5 27.9541 8.05393 1.10744 
93 0 5 28.052 6.15175 3.79399 
16065 0 5 32.3166 8.99682 3.8125 
15655 0 5 28.158 7.08506 6.12498 
16135 0 5 29.3269 7.11411 5.69546 
3317 0 5 29.809 10.2713 5.60023 
8667 0 5 30.1854 10.1322 7.28763 
11686 0 5 30.5901 7.03855 9.43212 
19964 0 5 30.0368 8.73203 9.82496 
20265 0 5 28.3605 8.04468 13.1147 
8821 0 5 31.1763 8.93379 11.7902 
23665 0 5 30.4581 10.2915 12.0039 
20234 0 5 28.0362 7.91261 14.5365 
21875 0 5 32.9738 8.2349 14.6902 
25745 0 5 31.6285 11.0199 15.039 
16858 0 5 32.7315 10.9969 14.7388 
8142 0 5 29.3998 6.95227 16.8326 
17101 0 5 32.0424 6.99467 16.6205 
9761 0 5 28.3732 10.6044 15.7038 
5092 0 5 28.4044 8.4919 18.1555 
2581 0 5 30.6743 9.91028 17.1423 
12102 0 5 32.2478 10.076 18.9904 
2893 0 5 29.0296 7.06031 21.9171 
486 0 5 31.8779 6.93088 22.237 
8930 0 5 30.5633 9.12446 21.4971 
14238 0 5 30.7448 10.8505 20.9571 
20758 0 5 30.9808 7.64878 24.0739 
9459 0 5 31.5628 7.35779 24.9575 
6604 0 5 29.5762 10.483 26.3686 
83 0 5 32.7858 7.05222 29.0848 
18079 0 5 31.419 9.89555 29.6343 
6669 0 5 30.2385 8.31133 30.2091 
18063 0 5 29.2129 7.41313 31.681 
13986 0 5 28.6842 8.09184 32.3523 
26968 0 5 29.7611 9.52266 32.5284 
16906 0 5 31.7388 11.6281 1.3136 
21570 0 5 28.7434 14.1095 1.20803 
16859 0 5 31.162 16.6826 4.3064 
14079 0 5 31.2244 12.7305 4.64599 
9344 0 5 31.3426 13.6136 5.531 
1712 0 5 30.7064 16.0228 5.14569 
6314 0 5 31.1168 16.0952 7.80546 
5292 0 5 30.9313 13.3054 9.66736 
22200 0 5 31.0875 15.7453 11.4352 
26252 0 5 30.3299 12.0499 13.3153 
13564 0 5 29.215 16.9363 12.5114 
14294 0 5 30.4561 16.7899 12.5502 
14611 0 5 29.8378 14.0796 14.5672 
13647 0 5 30.0703 16.3176 13.4807 
7688 0 5 29.7439 14.9327 16.4736 
1011 0 5 27.9398 11.5945 17.868 
9069 0 5 33.0915 13.2673 19.1339 
25556 0 5 31.8094 12.8584 21.8441 
24622 0 5 29.6591 13.9756 21.4124 
25325 0 5 28.4963 15.6238 21.2168 
12248 0 5 31.4393 14.6579 22.4513 
10521 0 5 29.966 14.3037 22.43 
15704 0 5 28.2897 14.6987 25.2188 
20330 0 5 33.0909 15.9575 25.2798 
6618 0 5 29.8858 15.8137 27.5021 
9265 0 5 28.2748 15.1012 29.5827 
3889 0 5 29.953 14.5246 27.8634 