ITEM: TIMESTEP
0
ITEM: NUMBER OF ATOMS
950
ITEM: BOX BOUNDS pp pp pp
0.0000000000000000e+00 3.4000000000000000e+01
0.0000000000000000e+00 3.4000000000000000e+01
0.0000000000000000e+00 3.4000000000000000e+01
ITEM: ATOMS id mol type x y z 
59 0 5 1.6 1.6 0.5 
963 0 5 2.7 2.7 1.5 
905 0 5 0.5 4.9 1.5 
4561 0 5 2.7 0.5 5.5 
5405 0 5 0.5 4.9 6.5 
5456 0 5 1.6 4.9 6.5 
6361 0 5 2.7 0.5 7.5 
6359 0 5 1.6 1.6 7.5 
6418 0 5 3.8 2.7 7.5 
6357 0 5 1.6 3.8 7.5 
6365 0 5 2.7 4.9 7.5 
9057 0 5 1.6 3.8 10.5 
9960 0 5 1.6 0.5 11.5 
11756 0 5 1.6 4.9 13.5 
11825 0 5 4.9 4.9 13.5 
12720 0 5 3.8 0.5 14.5 
13564 0 5 2.7 3.8 15.5 
14457 0 5 1.6 3.8 16.5 
17101 0 5 0.5 0.5 19.5 
17223 0 5 4.9 2.7 19.5 
18120 0 5 3.8 0.5 20.5 
18003 0 5 0.5 2.7 20.5 
18063 0 5 2.7 2.7 20.5 
18958 0 5 1.6 2.7 21.5 
18964 0 5 2.7 3.8 21.5 
20762 0 5 2.7 1.6 23.5 
20758 0 5 1.6 2.7 23.5 
20756 0 5 1.6 4.9 23.5 
21659 0 5 1.6 1.6 24.5 
22621 0 5 4.9 0.5 25.5 
22559 0 5 1.6 1.6 25.5 
22563 0 5 2.7 2.7 25.5 
22617 0 5 3.8 3.8 25.5 
24417 0 5 3.8 3.8 27.5 
24416 0 5 3.8 4.9 27.5 
25260 0 5 1.6 0.5 28.5 
25325 0 5 4.9 4.9 28.5 
26157 0 5 1.6 3.8 29.5 
66 0 5 2.7 6 0.5 
51 0 5 1.6 10.4 0.5 
1011 0 5 3.8 10.4 1.5 
1929 0 5 4.9 9.3 2.5 
2767 0 5 2.7 7.1 3.5 
2827 0 5 4.9 7.1 3.5 
2752 0 5 1.6 9.3 3.5 
2710 0 5 0.5 10.4 3.5 
3668 0 5 2.7 8.2 4.5 
3713 0 5 3.8 8.2 4.5 
4507 0 5 0.5 7.1 5.5 
4629 0 5 4.9 9.3 5.5 
5406 0 5 0.5 6 6.5 
5526 0 5 4.9 6 6.5 
5469 0 5 2.7 9.3 6.5 
5512 0 5 3.8 9.3 6.5 
7267 0 5 2.7 7.1 8.5 
8106 0 5 0.5 6 9.5 
9069 0 5 2.7 9.3 10.5 
9906 0 5 0.5 6 11.5 
9968 0 5 2.7 8.2 11.5 
9909 0 5 0.5 9.3 11.5 
11709 0 5 0.5 9.3 13.5 
11752 0 5 1.6 9.3 13.5 
12653 0 5 1.6 8.2 14.5 
13508 0 5 0.5 8.2 15.5 
13568 0 5 2.7 8.2 15.5 
13510 0 5 0.5 10.4 15.5 
14466 0 5 2.7 6 16.5 
15427 0 5 4.9 7.1 17.5 
15429 0 5 4.9 9.3 17.5 
15430 0 5 4.9 10.4 17.5 
18126 0 5 4.9 6 20.5 
18054 0 5 1.6 7.1 20.5 
21653 0 5 1.6 8.2 24.5 
21651 0 5 1.6 10.4 24.5 
25207 0 5 0.5 7.1 28.5 
975 0 5 2.7 15.9 1.5 
1934 0 5 4.9 14.8 2.5 
3710 0 5 3.8 11.5 4.5 
3612 0 5 0.5 12.6 4.5 
4515 0 5 0.5 15.9 5.5 
4635 0 5 4.9 15.9 5.5 
5472 0 5 2.7 12.6 6.5 
6314 0 5 0.5 14.8 7.5 
7273 0 5 2.7 13.7 8.5 
8148 0 5 1.6 13.7 9.5 
9047 0 5 1.6 14.8 10.5 
9972 0 5 2.7 12.6 11.5 
9975 0 5 2.7 15.9 11.5 
10813 0 5 0.5 13.7 12.5 
11712 0 5 0.5 12.6 13.5 
11748 0 5 1.6 13.7 13.5 
11746 0 5 1.6 15.9 13.5 
12709 0 5 3.8 12.6 14.5 
13572 0 5 2.7 12.6 15.5 
14473 0 5 2.7 13.7 16.5 
16271 0 5 2.7 11.5 18.5 
16308 0 5 3.8 13.7 18.5 
16215 0 5 0.5 15.9 18.5 
17210 0 5 3.8 11.5 19.5 
17147 0 5 1.6 14.8 19.5 
18072 0 5 2.7 12.6 20.5 
18047 0 5 1.6 14.8 20.5 
18046 0 5 1.6 15.9 20.5 
18106 0 5 3.8 15.9 20.5 
18949 0 5 1.6 12.6 21.5 
18973 0 5 2.7 13.7 21.5 
20809 0 5 3.8 12.6 23.5 
20773 0 5 2.7 13.7 23.5 
21672 0 5 2.7 12.6 24.5 
21674 0 5 2.7 14.8 24.5 
21675 0 5 2.7 15.9 24.5 
22571 0 5 2.7 11.5 25.5 
22512 0 5 0.5 12.6 25.5 
24435 0 5 4.9 15.9 27.5 
25214 0 5 0.5 14.8 28.5 
26112 0 5 0.5 12.6 29.5 
1001 0 5 3.8 21.4 1.5 
1905 0 5 3.8 17 2.5 
1903 0 5 3.8 19.2 2.5 
1941 0 5 4.9 22.5 2.5 
3676 0 5 2.7 17 4.5 
3621 0 5 0.5 22.5 4.5 
6402 0 5 3.8 20.3 7.5 
8142 0 5 1.6 20.3 9.5 
8239 0 5 4.9 20.3 9.5 
9136 0 5 4.9 17 10.5 
11745 0 5 1.6 17 13.5 
12700 0 5 3.8 22.5 14.5 
13638 0 5 4.9 19.2 15.5 
15340 0 5 1.6 22.5 17.5 
16277 0 5 2.7 18.1 18.5 
17118 0 5 0.5 19.2 19.5 
18077 0 5 2.7 18.1 20.5 
18078 0 5 2.7 19.2 20.5 
18079 0 5 2.7 20.3 20.5 
18081 0 5 2.7 22.5 20.5 
19039 0 5 4.9 20.3 21.5 
21677 0 5 2.7 18.1 24.5 
21642 0 5 1.6 20.3 24.5 
22520 0 5 0.5 21.4 25.5 
25218 0 5 0.5 19.2 28.5 
25243 0 5 1.6 19.2 28.5 
26120 0 5 0.5 21.4 29.5 
83 0 5 2.7 24.7 0.5 
97 0 5 3.8 25.8 0.5 
1882 0 5 2.7 23.6 2.5 
1886 0 5 2.7 28 2.5 
3698 0 5 3.8 24.7 4.5 
5546 0 5 4.9 28 6.5 
6399 0 5 3.8 23.6 7.5 
6395 0 5 3.8 28 7.5 
6446 0 5 4.9 28 7.5 
7282 0 5 2.7 23.6 8.5 
7342 0 5 4.9 23.6 8.5 
8196 0 5 3.8 26.9 9.5 
9924 0 5 0.5 25.8 11.5 
10838 0 5 1.6 24.7 12.5 
11735 0 5 1.6 28 13.5 
12699 0 5 3.8 23.6 14.5 
13539 0 5 1.6 23.6 15.5 
16224 0 5 0.5 25.8 18.5 
16225 0 5 0.5 26.9 18.5 
17195 0 5 3.8 28 19.5 
18097 0 5 3.8 25.8 20.5 
20799 0 5 3.8 23.6 23.5 
22642 0 5 4.9 23.6 25.5 
22524 0 5 0.5 25.8 25.5 
22644 0 5 4.9 25.8 25.5 
22645 0 5 4.9 26.9 25.5 
23424 0 5 0.5 25.8 26.5 
24445 0 5 4.9 26.9 27.5 
25222 0 5 0.5 23.6 28.5 
25298 0 5 3.8 24.7 28.5 
25285 0 5 2.7 26.9 28.5 
26198 0 5 3.8 24.7 29.5 
93 0 5 3.8 30.2 0.5 
1049 0 5 4.9 31.3 1.5 
2847 0 5 4.9 29.1 3.5 
3632 0 5 1.6 31.3 4.5 
5489 0 5 2.7 31.3 6.5 
5430 0 5 0.5 32.4 6.5 
7287 0 5 2.7 29.1 8.5 
7350 0 5 4.9 32.4 8.5 
8247 0 5 4.9 29.1 9.5 
9149 0 5 4.9 31.3 10.5 
10950 0 5 4.9 32.4 12.5 
13647 0 5 4.9 29.1 15.5 
16290 0 5 2.7 32.4 18.5 
17127 0 5 0.5 29.1 19.5 
19047 0 5 4.9 29.1 21.5 
22530 0 5 0.5 32.4 25.5 
25290 0 5 2.7 32.4 28.5 
178 0 5 6 2.7 0.5 
1085 0 5 7.1 4.9 1.5 
1136 0 5 8.2 4.9 1.5 
2883 0 5 7.1 2.7 3.5 
3778 0 5 6 2.7 4.5 
4676 0 5 6 4.9 5.5 
4796 0 5 10.4 4.9 5.5 
5640 0 5 8.2 0.5 6.5 
5643 0 5 9.3 2.7 6.5 
6545 0 5 9.3 4.9 7.5 
7441 0 5 9.3 0.5 8.5 
9300 0 5 10.4 0.5 10.5 
9239 0 5 8.2 1.6 10.5 
9178 0 5 6 2.7 10.5 
9245 0 5 9.3 4.9 10.5 
11042 0 5 9.3 1.6 12.5 
13738 0 5 8.2 2.7 15.5 
13685 0 5 7.1 4.9 15.5 
16383 0 5 7.1 2.7 18.5 
16438 0 5 8.2 2.7 18.5 
17345 0 5 9.3 4.9 19.5 
19138 0 5 8.2 2.7 21.5 
20997 0 5 10.4 3.8 23.5 
21783 0 5 7.1 2.7 24.5 
22737 0 5 8.2 3.8 25.5 
171 0 5 6 10.4 0.5 
1086 0 5 7.1 6 1.5 
1074 0 5 6 7.1 1.5 
3774 0 5 6 7.1 4.5 
4734 0 5 8.2 7.1 5.5 
5646 0 5 9.3 6 6.5 
6594 0 5 10.4 7.1 7.5 
8275 0 5 6 6 9.5 
12771 0 5 6 10.4 14.5 
13733 0 5 8.2 8.2 15.5 
15490 0 5 7.1 10.4 17.5 
16374 0 5 6 7.1 18.5 
19075 0 5 6 6 21.5 
19074 0 5 6 7.1 21.5 
20033 0 5 8.2 8.2 22.5 
20994 0 5 10.4 7.1 23.5 
21789 0 5 7.1 9.3 24.5 
24594 0 5 10.4 7.1 27.5 
24592 0 5 10.4 9.3 27.5 
26332 0 5 8.2 9.3 29.5 
2893 0 5 7.1 13.7 3.5 
3889 0 5 10.4 12.6 4.5 
7490 0 5 10.4 11.5 8.5 
8353 0 5 9.3 13.7 9.5 
9230 0 5 8.2 11.5 10.5 
9254 0 5 9.3 14.8 10.5 
11954 0 5 9.3 14.8 13.5 
12888 0 5 10.4 13.7 14.5 
14591 0 5 7.1 11.5 16.5 
14655 0 5 9.3 15.9 16.5 
16393 0 5 7.1 13.7 18.5 
17328 0 5 8.2 13.7 19.5 
20090 0 5 10.4 11.5 22.5 
19994 0 5 7.1 14.8 22.5 
20087 0 5 10.4 14.8 22.5 
19995 0 5 7.1 15.9 22.5 
20086 0 5 10.4 15.9 22.5 
20953 0 5 9.3 13.7 23.5 
21889 0 5 10.4 12.6 24.5 
21793 0 5 7.1 13.7 24.5 
21853 0 5 9.3 13.7 24.5 
21795 0 5 7.1 15.9 24.5 
25451 0 5 9.3 11.5 28.5 
26390 0 5 10.4 11.5 29.5 
221 0 5 8.2 21.4 0.5 
2959 0 5 9.3 20.3 3.5 
3762 0 5 6 20.3 4.5 
4697 0 5 7.1 18.1 5.5 
5597 0 5 7.1 18.1 6.5 
6585 0 5 10.4 17 7.5 
6582 0 5 10.4 20.3 7.5 
7483 0 5 10.4 19.2 8.5 
9196 0 5 7.1 17 10.5 
9161 0 5 6 21.4 10.5 
10183 0 5 10.4 19.2 11.5 
10961 0 5 6 21.4 12.5 
14622 0 5 8.2 20.3 16.5 
15561 0 5 9.3 22.5 17.5 
17301 0 5 7.1 22.5 19.5 
18197 0 5 7.1 18.1 20.5 
19063 0 5 6 19.2 21.5 
19965 0 5 6 17 22.5 
19964 0 5 6 18.1 22.5 
20057 0 5 9.3 18.1 22.5 
21860 0 5 9.3 21.4 24.5 
22761 0 5 9.3 22.5 25.5 
24584 0 5 10.4 18.1 27.5 
24559 0 5 9.3 20.3 27.5 
1056 0 5 6 26.9 1.5 
2066 0 5 9.3 28 2.5 
2964 0 5 9.3 25.8 3.5 
3755 0 5 6 28 4.5 
5664 0 5 9.3 25.8 6.5 
6505 0 5 7.1 26.9 7.5 
8378 0 5 10.4 24.7 9.5 
9265 0 5 9.3 26.9 10.5 
12805 0 5 7.1 26.9 14.5 
15457 0 5 6 25.8 17.5 
17379 0 5 10.4 23.6 19.5 
17366 0 5 9.3 28 19.5 
19115 0 5 8.2 28 21.5 
20063 0 5 9.3 24.7 22.5 
20855 0 5 6 28 23.5 
21816 0 5 8.2 26.9 24.5 
21875 0 5 10.4 28 24.5 
23665 0 5 9.3 26.9 26.5 
24502 0 5 7.1 23.6 27.5 
24565 0 5 9.3 26.9 27.5 
152 0 5 6 31.3 0.5 
1173 0 5 10.4 30.2 1.5 
2008 0 5 7.1 30.2 2.5 
4653 0 5 6 30.2 5.5 
4768 0 5 9.3 30.2 5.5 
6568 0 5 9.3 30.2 7.5 
10053 0 5 6 30.2 11.5 
11014 0 5 8.2 29.1 12.5 
11009 0 5 7.1 31.3 12.5 
13710 0 5 7.1 32.4 15.5 
14610 0 5 7.1 32.4 16.5 
14611 0 5 8.2 32.4 16.5 
19173 0 5 10.4 30.2 21.5 
20968 0 5 9.3 30.2 23.5 
20910 0 5 7.1 32.4 23.5 
21811 0 5 8.2 32.4 24.5 
22652 0 5 6 31.3 25.5 
24570 0 5 9.3 32.4 27.5 
26367 0 5 9.3 29.1 29.5 
26252 0 5 6 31.3 29.5 
302 0 5 11.5 1.6 0.5 
304 0 5 11.5 3.8 0.5 
4804 0 5 11.5 3.8 5.5 
4916 0 5 14.8 4.9 5.5 
6604 0 5 11.5 3.8 7.5 
6605 0 5 11.5 4.9 7.5 
7625 0 5 15.9 4.9 8.5 
9423 0 5 15.9 2.7 10.5 
12960 0 5 12.6 0.5 14.5 
12962 0 5 13.7 1.6 14.5 
14702 0 5 11.5 1.6 16.5 
15661 0 5 13.7 0.5 17.5 
15659 0 5 12.6 1.6 17.5 
15663 0 5 13.7 2.7 17.5 
15723 0 5 15.9 2.7 17.5 
16563 0 5 13.7 2.7 18.5 
17456 0 5 12.6 4.9 19.5 
20221 0 5 15.9 0.5 22.5 
22022 0 5 15.9 1.6 24.5 
21963 0 5 13.7 2.7 24.5 
23763 0 5 13.7 2.7 26.5 
23764 0 5 13.7 3.8 26.5 
23816 0 5 14.8 4.9 26.5 
25620 0 5 14.8 0.5 28.5 
25558 0 5 12.6 2.7 28.5 
25556 0 5 12.6 4.9 28.5 
26459 0 5 12.6 1.6 29.5 
26518 0 5 14.8 2.7 29.5 
26404 0 5 11.5 3.8 29.5 
310 0 5 11.5 10.4 0.5 
2214 0 5 14.8 7.1 2.5 
3067 0 5 13.7 7.1 3.5 
3053 0 5 12.6 8.2 3.5 
3052 0 5 12.6 9.3 3.5 
4854 0 5 12.6 7.1 5.5 
4808 0 5 11.5 8.2 5.5 
4928 0 5 15.9 8.2 5.5 
6666 0 5 13.7 6 7.5 
6669 0 5 13.7 9.3 7.5 
7627 0 5 15.9 7.1 8.5 
9352 0 5 12.6 9.3 10.5 
10327 0 5 15.9 7.1 11.5 
12127 0 5 15.9 7.1 13.5 
12954 0 5 12.6 7.1 14.5 
13911 0 5 14.8 10.4 15.5 
14830 0 5 15.9 10.4 16.5 
15606 0 5 11.5 6 17.5 
15655 0 5 12.6 6 17.5 
15607 0 5 11.5 7.1 17.5 
15714 0 5 14.8 7.1 17.5 
15711 0 5 14.8 10.4 17.5 
19254 0 5 12.6 7.1 21.5 
19313 0 5 14.8 8.2 21.5 
20214 0 5 14.8 7.1 22.5 
23766 0 5 13.7 6 26.5 
23751 0 5 12.6 10.4 26.5 
409 0 5 14.8 12.6 0.5 
373 0 5 13.7 13.7 0.5 
2150 0 5 12.6 11.5 2.5 
3914 0 5 11.5 14.8 4.5 
4850 0 5 12.6 11.5 5.5 
4813 0 5 11.5 13.7 5.5 
6706 0 5 14.8 15.9 7.5 
9350 0 5 12.6 11.5 10.5 
10211 0 5 11.5 11.5 11.5 
12971 0 5 13.7 11.5 14.5 
12972 0 5 13.7 12.6 14.5 
15614 0 5 11.5 14.8 17.5 
15707 0 5 14.8 14.8 17.5 
16633 0 5 15.9 13.7 18.5 
18431 0 5 15.9 11.5 20.5 
18349 0 5 12.6 12.6 20.5 
19249 0 5 12.6 12.6 21.5 
19333 0 5 15.9 13.7 21.5 
19214 0 5 11.5 14.8 21.5 
20234 0 5 15.9 14.8 22.5 
22006 0 5 14.8 15.9 24.5 
22812 0 5 11.5 12.6 25.5 
22872 0 5 13.7 12.6 25.5 
22874 0 5 13.7 14.8 25.5 
22846 0 5 12.6 15.9 25.5 
23711 0 5 11.5 11.5 26.5 
24611 0 5 11.5 11.5 27.5 
25513 0 5 11.5 13.7 28.5 
436 0 5 15.9 17 0.5 
3141 0 5 15.9 22.5 3.5 
4902 0 5 14.8 20.3 5.5 
4821 0 5 11.5 22.5 5.5 
6618 0 5 11.5 19.2 7.5 
7579 0 5 13.7 20.3 8.5 
9344 0 5 12.6 18.1 10.5 
10242 0 5 12.6 20.3 11.5 
11143 0 5 12.6 19.2 12.5 
11142 0 5 12.6 20.3 12.5 
12102 0 5 14.8 20.3 13.5 
12101 0 5 14.8 21.4 13.5 
13039 0 5 15.9 20.3 14.5 
13819 0 5 11.5 20.3 15.5 
14779 0 5 13.7 20.3 16.5 
15704 0 5 14.8 18.1 17.5 
15620 0 5 11.5 21.4 17.5 
18319 0 5 11.5 20.3 20.5 
20178 0 5 13.7 19.2 22.5 
22037 0 5 15.9 18.1 24.5 
22002 0 5 14.8 20.3 24.5 
22841 0 5 12.6 21.4 25.5 
23777 0 5 13.7 18.1 26.5 
23803 0 5 14.8 19.2 26.5 
23721 0 5 11.5 22.5 26.5 
25544 0 5 12.6 18.1 28.5 
25580 0 5 13.7 21.4 28.5 
25521 0 5 11.5 22.5 28.5 
398 0 5 14.8 24.7 0.5 
384 0 5 13.7 25.8 0.5 
3143 0 5 15.9 24.7 3.5 
4885 0 5 13.7 26.9 5.5 
4886 0 5 13.7 28 5.5 
5785 0 5 13.7 26.9 6.5 
7536 0 5 12.6 26.9 8.5 
7645 0 5 15.9 26.9 8.5 
8542 0 5 15.9 23.6 9.5 
10236 0 5 12.6 26.9 11.5 
12924 0 5 11.5 25.8 14.5 
14846 0 5 15.9 28 16.5 
16583 0 5 13.7 24.7 18.5 
17484 0 5 13.7 25.8 19.5 
18339 0 5 12.6 23.6 20.5 
18338 0 5 12.6 24.7 20.5 
18337 0 5 12.6 25.8 20.5 
18446 0 5 15.9 28 20.5 
21035 0 5 12.6 28 23.5 
22836 0 5 12.6 26.9 25.5 
22946 0 5 15.9 28 25.5 
23726 0 5 11.5 28 26.5 
24622 0 5 11.5 23.6 27.5 
24695 0 5 14.8 28 27.5 
25538 0 5 12.6 24.7 28.5 
25644 0 5 15.9 25.8 28.5 
388 0 5 13.7 30.2 0.5 
1349 0 5 15.9 31.3 1.5 
2133 0 5 12.6 30.2 2.5 
4887 0 5 13.7 29.1 5.5 
4828 0 5 11.5 30.2 5.5 
4893 0 5 14.8 30.2 5.5 
7593 0 5 14.8 30.2 8.5 
7529 0 5 11.5 31.3 8.5 
10227 0 5 11.5 29.1 11.5 
10288 0 5 13.7 30.2 11.5 
10293 0 5 14.8 30.2 11.5 
10229 0 5 11.5 31.3 11.5 
11249 0 5 15.9 31.3 12.5 
15692 0 5 14.8 31.3 17.5 
18330 0 5 11.5 32.4 20.5 
19228 0 5 11.5 30.2 21.5 
20194 0 5 14.8 29.1 22.5 
21028 0 5 11.5 30.2 23.5 
21033 0 5 12.6 30.2 23.5 
22829 0 5 11.5 31.3 25.5 
23788 0 5 13.7 30.2 26.5 
23848 0 5 15.9 30.2 26.5 
23849 0 5 15.9 31.3 26.5 
26492 0 5 14.8 31.3 29.5 
4076 0 5 17 4.9 4.5 
5099 0 5 21.4 1.6 5.5 
6785 0 5 18.1 4.9 7.5 
6896 0 5 21.4 4.9 7.5 
8705 0 5 22.5 4.9 9.5 
9597 0 5 21.4 3.8 10.5 
10381 0 5 18.1 0.5 11.5 
10382 0 5 18.1 1.6 11.5 
10503 0 5 22.5 2.7 11.5 
12302 0 5 22.5 1.6 13.5 
12237 0 5 19.2 3.8 13.5 
14097 0 5 21.4 3.8 15.5 
14944 0 5 20.3 3.8 16.5 
17637 0 5 19.2 3.8 19.5 
18482 0 5 18.1 1.6 20.5 
18544 0 5 20.3 3.8 20.5 
19382 0 5 18.1 1.6 21.5 
20282 0 5 18.1 1.6 22.5 
20338 0 5 19.2 2.7 22.5 
22200 0 5 21.4 0.5 24.5 
22202 0 5 22.5 1.6 24.5 
22077 0 5 17 3.8 24.5 
23937 0 5 19.2 3.8 26.5 
24845 0 5 20.3 4.9 27.5 
25678 0 5 17 2.7 28.5 
25676 0 5 17 4.9 28.5 
25745 0 5 20.3 4.9 28.5 
26644 0 5 20.3 3.8 29.5 
486 0 5 18.1 6 0.5 
1449 0 5 20.3 9.3 1.5 
2350 0 5 20.3 10.4 2.5 
3309 0 5 22.5 9.3 3.5 
3190 0 5 18.1 10.4 3.5 
5092 0 5 21.4 9.3 5.5 
5110 0 5 22.5 10.4 5.5 
6835 0 5 19.2 6 7.5 
7746 0 5 20.3 6 8.5 
7795 0 5 21.4 6 8.5 
7688 0 5 18.1 8.2 8.5 
7808 0 5 22.5 8.2 8.5 
7749 0 5 20.3 9.3 8.5 
10447 0 5 20.3 7.1 11.5 
11271 0 5 17 10.4 12.5 
12188 0 5 18.1 8.2 13.5 
12248 0 5 20.3 8.2 13.5 
12292 0 5 21.4 9.3 13.5 
13986 0 5 18.1 6 15.5 
14095 0 5 21.4 6 15.5 
14048 0 5 20.3 8.2 15.5 
14108 0 5 22.5 8.2 15.5 
16674 0 5 17 7.1 18.5 
16748 0 5 20.3 8.2 18.5 
16672 0 5 17 9.3 18.5 
18534 0 5 19.2 7.1 20.5 
19433 0 5 19.2 8.2 21.5 
20349 0 5 20.3 9.3 22.5 
20410 0 5 22.5 10.4 22.5 
21295 0 5 21.4 6 23.5 
22089 0 5 18.1 9.3 24.5 
22149 0 5 20.3 9.3 24.5 
23934 0 5 19.2 7.1 26.5 
23947 0 5 20.3 7.1 26.5 
25733 0 5 19.2 8.2 28.5 
25808 0 5 22.5 8.2 28.5 
2355 0 5 20.3 15.9 2.5 
3195 0 5 18.1 15.9 3.5 
5026 0 5 19.2 15.9 5.5 
5115 0 5 22.5 15.9 5.5 
6830 0 5 19.2 11.5 7.5 
6793 0 5 18.1 13.7 7.5 
8687 0 5 21.4 14.8 9.5 
9612 0 5 22.5 12.6 10.5 
10367 0 5 17 14.8 11.5 
11268 0 5 17 13.7 12.5 
12230 0 5 19.2 11.5 13.5 
12290 0 5 21.4 11.5 13.5 
14894 0 5 18.1 14.8 16.5 
15889 0 5 21.4 12.6 17.5 
16753 0 5 20.3 13.7 18.5 
18470 0 5 17 11.5 20.5 
18588 0 5 21.4 13.7 20.5 
19453 0 5 20.3 13.7 21.5 
20330 0 5 19.2 11.5 22.5 
21227 0 5 19.2 14.8 23.5 
21286 0 5 21.4 15.9 23.5 
22094 0 5 18.1 14.8 24.5 
23051 0 5 20.3 11.5 25.5 
23892 0 5 18.1 12.6 26.5 
23987 0 5 21.4 14.8 26.5 
23986 0 5 21.4 15.9 26.5 
25789 0 5 21.4 12.6 28.5 
25728 0 5 19.2 13.7 28.5 
25667 0 5 17 14.8 28.5 
25727 0 5 19.2 14.8 28.5 
26652 0 5 20.3 12.6 29.5 
26628 0 5 19.2 13.7 29.5 
499 0 5 18.1 20.3 0.5 
3196 0 5 18.1 17 3.5 
3285 0 5 21.4 17 3.5 
3317 0 5 22.5 18.1 3.5 
4101 0 5 18.1 22.5 4.5 
4221 0 5 22.5 22.5 4.5 
5025 0 5 19.2 17 5.5 
5121 0 5 22.5 22.5 5.5 
6858 0 5 20.3 19.2 7.5 
6881 0 5 21.4 21.4 7.5 
7757 0 5 20.3 18.1 8.5 
7780 0 5 21.4 22.5 8.5 
9497 0 5 18.1 18.1 10.5 
10456 0 5 20.3 17 11.5 
10457 0 5 20.3 18.1 11.5 
10482 0 5 21.4 20.3 11.5 
10521 0 5 22.5 22.5 11.5 
11320 0 5 19.2 22.5 12.5 
12223 0 5 19.2 19.2 13.5 
12220 0 5 19.2 22.5 13.5 
14081 0 5 21.4 21.4 15.5 
14061 0 5 20.3 22.5 15.5 
15883 0 5 21.4 19.2 17.5 
16660 0 5 17 22.5 18.5 
18496 0 5 18.1 17 20.5 
20265 0 5 17 17 22.5 
20360 0 5 20.3 21.4 22.5 
21223 0 5 19.2 19.2 23.5 
23024 0 5 19.2 18.1 25.5 
23023 0 5 19.2 19.2 25.5 
23985 0 5 21.4 17 26.5 
24765 0 5 17 17 27.5 
24920 0 5 22.5 21.4 27.5 
25820 0 5 22.5 21.4 28.5 
25660 0 5 17 22.5 28.5 
25720 0 5 19.2 22.5 28.5 
26681 0 5 21.4 21.4 29.5 
1357 0 5 17 25.8 1.5 
1465 0 5 20.3 26.9 1.5 
1406 0 5 18.1 28 1.5 
4222 0 5 22.5 23.6 4.5 
4226 0 5 22.5 28 4.5 
5125 0 5 22.5 26.9 5.5 
5904 0 5 18.1 25.8 6.5 
6804 0 5 18.1 25.8 7.5 
7706 0 5 18.1 28 8.5 
7715 0 5 19.2 28 8.5 
8617 0 5 19.2 25.8 9.5 
8605 0 5 18.1 26.9 9.5 
9459 0 5 17 23.6 10.5 
9579 0 5 21.4 23.6 10.5 
9563 0 5 20.3 24.7 10.5 
10417 0 5 19.2 25.8 11.5 
11376 0 5 21.4 26.9 12.5 
13163 0 5 20.3 24.7 14.5 
13178 0 5 21.4 24.7 14.5 
13104 0 5 18.1 25.8 14.5 
13177 0 5 21.4 25.8 14.5 
14079 0 5 21.4 23.6 15.5 
14918 0 5 19.2 24.7 16.5 
14856 0 5 17 26.9 16.5 
14906 0 5 18.1 28 16.5 
15816 0 5 19.2 26.9 17.5 
16765 0 5 20.3 26.9 18.5 
16715 0 5 19.2 28 18.5 
23017 0 5 19.2 25.8 25.5 
23016 0 5 19.2 26.9 25.5 
24025 0 5 22.5 26.9 26.5 
24879 0 5 21.4 23.6 27.5 
24864 0 5 20.3 25.8 27.5 
25718 0 5 19.2 24.7 28.5 
25778 0 5 21.4 24.7 28.5 
451 0 5 17 32.4 0.5 
1354 0 5 17 29.1 1.5 
1527 0 5 22.5 29.1 1.5 
3152 0 5 17 31.3 3.5 
3209 0 5 18.1 31.3 3.5 
3210 0 5 18.1 32.4 3.5 
4168 0 5 20.3 30.2 4.5 
4109 0 5 18.1 31.3 4.5 
6811 0 5 19.2 32.4 7.5 
8667 0 5 20.3 29.1 9.5 
10414 0 5 19.2 29.1 11.5 
11307 0 5 18.1 29.1 12.5 
11309 0 5 18.1 31.3 12.5 
12329 0 5 22.5 31.3 13.5 
12330 0 5 22.5 32.4 13.5 
13170 0 5 20.3 32.4 14.5 
15029 0 5 22.5 31.3 16.5 
15874 0 5 21.4 29.1 17.5 
16770 0 5 20.3 32.4 18.5 
17727 0 5 22.5 29.1 19.5 
21270 0 5 20.3 32.4 23.5 
22113 0 5 19.2 30.2 24.5 
25652 0 5 17 31.3 28.5 
26730 0 5 22.5 32.4 29.5 
2463 0 5 24.7 2.7 2.5 
3421 0 5 26.9 0.5 3.5 
4264 0 5 24.7 3.8 4.5 
4256 0 5 23.6 4.9 4.5 
5280 0 5 28 0.5 5.5 
5279 0 5 28 1.6 5.5 
6062 0 5 24.7 1.6 6.5 
7022 0 5 26.9 1.6 7.5 
7858 0 5 23.6 2.7 8.5 
7976 0 5 28 4.9 8.5 
8821 0 5 26.9 0.5 9.5 
8816 0 5 25.8 4.9 9.5 
12365 0 5 24.7 4.9 13.5 
14216 0 5 25.8 4.9 15.5 
16859 0 5 23.6 1.6 18.5 
16979 0 5 28 1.6 18.5 
16858 0 5 23.6 2.7 18.5 
16977 0 5 28 3.8 18.5 
17823 0 5 26.9 2.7 19.5 
18723 0 5 26.9 2.7 20.5 
18656 0 5 23.6 4.9 20.5 
20459 0 5 23.6 1.6 22.5 
20463 0 5 24.7 2.7 22.5 
24961 0 5 24.7 0.5 27.5 
25864 0 5 24.7 3.8 28.5 
25925 0 5 26.9 4.9 28.5 
1613 0 5 25.8 8.2 1.5 
2527 0 5 26.9 7.1 2.5 
3427 0 5 26.9 7.1 3.5 
3368 0 5 24.7 8.2 3.5 
4255 0 5 23.6 6 4.5 
4371 0 5 28 10.4 4.5 
6055 0 5 23.6 6 6.5 
7028 0 5 26.9 8.2 7.5 
10566 0 5 24.7 6 11.5 
12474 0 5 28 7.1 13.5 
13251 0 5 23.6 10.4 14.5 
14227 0 5 26.9 7.1 15.5 
15967 0 5 24.7 7.1 17.5 
15953 0 5 23.6 8.2 17.5 
17812 0 5 25.8 9.3 19.5 
18773 0 5 28 8.2 20.5 
18772 0 5 28 9.3 20.5 
24953 0 5 23.6 8.2 27.5 
25928 0 5 26.9 8.2 28.5 
1632 0 5 26.9 12.6 1.5 
1634 0 5 26.9 14.8 1.5 
3350 0 5 23.6 11.5 3.5 
3406 0 5 25.8 15.9 3.5 
6050 0 5 23.6 11.5 6.5 
7007 0 5 25.8 14.8 7.5 
7968 0 5 28 13.7 8.5 
10550 0 5 23.6 11.5 11.5 
10549 0 5 23.6 12.6 11.5 
10575 0 5 24.7 15.9 11.5 
12432 0 5 26.9 12.6 13.5 
12466 0 5 28 15.9 13.5 
14231 0 5 26.9 11.5 15.5 
14232 0 5 26.9 12.6 15.5 
14234 0 5 26.9 14.8 15.5 
15135 0 5 26.9 15.9 16.5 
16847 0 5 23.6 14.8 18.5 
16906 0 5 25.8 15.9 18.5 
17833 0 5 26.9 13.7 19.5 
18672 0 5 24.7 12.6 20.5 
18674 0 5 24.7 14.8 20.5 
21350 0 5 23.6 11.5 23.5 
21346 0 5 23.6 15.9 23.5 
22368 0 5 28 13.7 24.5 
25850 0 5 23.6 11.5 28.5 
26868 0 5 28 13.7 29.5 
26807 0 5 25.8 14.8 29.5 
2443 0 5 23.6 19.2 2.5 
2563 0 5 28 19.2 2.5 
2562 0 5 28 20.3 2.5 
4364 0 5 28 18.1 4.5 
5264 0 5 28 18.1 5.5 
7002 0 5 25.8 20.3 7.5 
7845 0 5 23.6 17 8.5 
7842 0 5 23.6 20.3 8.5 
9642 0 5 23.6 20.3 10.5 
9761 0 5 28 21.4 10.5 
12376 0 5 24.7 17 13.5 
12344 0 5 23.6 18.1 13.5 
14238 0 5 26.9 19.2 15.5 
15076 0 5 24.7 17 16.5 
16065 0 5 28 17 17.5 
15941 0 5 23.6 21.4 17.5 
15981 0 5 24.7 22.5 17.5 
17745 0 5 23.6 17 19.5 
17740 0 5 23.6 22.5 19.5 
18678 0 5 24.7 19.2 20.5 
18762 0 5 28 20.3 20.5 
18680 0 5 24.7 21.4 20.5 
19662 0 5 28 20.3 21.5 
21341 0 5 23.6 21.4 23.5 
22245 0 5 23.6 17 24.5 
22303 0 5 25.8 19.2 24.5 
23144 0 5 23.6 18.1 25.5 
24102 0 5 25.8 20.3 26.5 
25065 0 5 28 17 27.5 
24944 0 5 23.6 18.1 27.5 
25876 0 5 24.7 17 28.5 
26776 0 5 24.7 17 29.5 
26743 0 5 23.6 19.2 29.5 
698 0 5 25.8 24.7 0.5 
743 0 5 26.9 24.7 0.5 
696 0 5 25.8 26.9 0.5 
1538 0 5 23.6 24.7 1.5 
1597 0 5 25.8 25.8 1.5 
2439 0 5 23.6 23.6 2.5 
4356 0 5 28 26.9 4.5 
4355 0 5 28 28 4.5 
8799 0 5 25.8 23.6 9.5 
8843 0 5 26.9 24.7 9.5 
8797 0 5 25.8 25.8 9.5 
10535 0 5 23.6 28 11.5 
11542 0 5 26.9 23.6 12.5 
13282 0 5 24.7 23.6 14.5 
13283 0 5 24.7 24.7 14.5 
13237 0 5 23.6 25.8 14.5 
21395 0 5 25.8 28 23.5 
22298 0 5 25.8 24.7 24.5 
24099 0 5 25.8 23.6 26.5 
25046 0 5 26.9 28 27.5 
25945 0 5 26.9 26.9 28.5 
1532 0 5 23.6 31.3 1.5 
3389 0 5 24.7 31.3 3.5 
3392 0 5 25.8 31.3 3.5 
3390 0 5 24.7 32.4 3.5 
4288 0 5 24.7 30.2 4.5 
5133 0 5 23.6 30.2 5.5 
5248 0 5 26.9 30.2 5.5 
8848 0 5 26.9 30.2 9.5 
9753 0 5 28 30.2 10.5 
9749 0 5 26.9 31.3 10.5 
10592 0 5 25.8 31.3 11.5 
12393 0 5 25.8 30.2 13.5 
12450 0 5 26.9 32.4 13.5 
14252 0 5 28 31.3 15.5 
14251 0 5 28 32.4 15.5 
15150 0 5 26.9 32.4 16.5 
15991 0 5 25.8 32.4 17.5 
19531 0 5 23.6 32.4 21.5 
22348 0 5 26.9 30.2 24.5 
25954 0 5 28 29.1 28.5 
26847 0 5 26.9 29.1 29.5 
26851 0 5 28 32.4 29.5 
898 0 5 32.4 2.7 0.5 
2581 0 5 29.1 0.5 2.5 
7196 0 5 32.4 4.9 7.5 
10684 0 5 29.1 3.8 11.5 
10737 0 5 30.2 3.8 11.5 
11581 0 5 29.1 0.5 12.5 
12539 0 5 30.2 1.6 13.5 
16136 0 5 30.2 4.9 17.5 
16981 0 5 29.1 0.5 18.5 
17100 0 5 32.4 0.5 18.5 
18840 0 5 30.2 0.5 20.5 
18900 0 5 32.4 0.5 20.5 
18838 0 5 30.2 2.7 20.5 
18898 0 5 32.4 2.7 20.5 
20642 0 5 31.3 1.6 22.5 
20636 0 5 30.2 4.9 22.5 
21599 0 5 32.4 1.6 23.5 
23342 0 5 31.3 1.6 25.5 
23343 0 5 31.3 2.7 25.5 
25199 0 5 32.4 1.6 27.5 
25197 0 5 32.4 3.8 27.5 
1794 0 5 32.4 7.1 1.5 
3549 0 5 31.3 9.3 3.5 
5334 0 5 30.2 7.1 5.5 
5350 0 5 31.3 10.4 5.5 
6233 0 5 30.2 8.2 6.5 
6248 0 5 31.3 8.2 6.5 
8091 0 5 32.4 10.4 8.5 
8935 0 5 30.2 6 9.5 
9834 0 5 30.2 7.1 10.5 
11691 0 5 32.4 10.4 12.5 
12532 0 5 30.2 9.3 13.5 
14349 0 5 31.3 9.3 15.5 
15234 0 5 30.2 7.1 16.5 
16135 0 5 30.2 6 17.5 
16191 0 5 32.4 10.4 17.5 
17095 0 5 32.4 6 18.5 
18847 0 5 31.3 7.1 20.5 
18832 0 5 30.2 9.3 20.5 
20692 0 5 32.4 9.3 22.5 
25131 0 5 30.2 10.4 27.5 
792 0 5 29.1 12.6 0.5 
4489 0 5 32.4 12.6 4.5 
5292 0 5 29.1 12.6 5.5 
5386 0 5 32.4 15.9 5.5 
6227 0 5 30.2 14.8 6.5 
8051 0 5 31.3 11.5 8.5 
7995 0 5 29.1 15.9 8.5 
8930 0 5 30.2 11.5 9.5 
8929 0 5 30.2 12.6 9.5 
10695 0 5 29.1 15.9 11.5 
11626 0 5 30.2 15.9 12.5 
11686 0 5 32.4 15.9 12.5 
14353 0 5 31.3 13.7 15.5 
14294 0 5 29.1 14.8 15.5 
14326 0 5 30.2 15.9 15.5 
16188 0 5 32.4 13.7 17.5 
18792 0 5 29.1 12.6 20.5 
18794 0 5 29.1 14.8 20.5 
18795 0 5 29.1 15.9 20.5 
18826 0 5 30.2 15.9 20.5 
21589 0 5 32.4 12.6 23.5 
25127 0 5 30.2 14.8 27.5 
25991 0 5 29.1 11.5 28.5 
1723 0 5 30.2 19.2 1.5 
2597 0 5 29.1 18.1 2.5 
2681 0 5 32.4 21.4 2.5 
5297 0 5 29.1 18.1 5.5 
6284 0 5 32.4 18.1 6.5 
7996 0 5 29.1 17 8.5 
8000 0 5 29.1 21.4 8.5 
10722 0 5 30.2 20.3 11.5 
11625 0 5 30.2 17 12.5 
11622 0 5 30.2 20.3 12.5 
11600 0 5 29.1 21.4 12.5 
12561 0 5 31.3 22.5 13.5 
14325 0 5 30.2 17 15.5 
14384 0 5 32.4 18.1 15.5 
15224 0 5 30.2 18.1 16.5 
16181 0 5 32.4 21.4 17.5 
17900 0 5 29.1 21.4 19.5 
18800 0 5 29.1 21.4 20.5 
21496 0 5 29.1 17 23.5 
23322 0 5 30.2 20.3 25.5 
26085 0 5 32.4 17 28.5 
26022 0 5 30.2 20.3 28.5 
1718 0 5 30.2 24.7 1.5 
5363 0 5 31.3 24.7 5.5 
6277 0 5 32.4 25.8 6.5 
8016 0 5 30.2 26.9 8.5 
10718 0 5 30.2 24.7 11.5 
11664 0 5 31.3 25.8 12.5 
12519 0 5 30.2 23.6 13.5 
13419 0 5 30.2 23.6 14.5 
14305 0 5 29.1 26.9 15.5 
14365 0 5 31.3 26.9 15.5 
17902 0 5 29.1 23.6 19.5 
19779 0 5 32.4 23.6 21.5 
19717 0 5 30.2 25.8 21.5 
21562 0 5 31.3 23.6 23.5 
22415 0 5 30.2 28 24.5 
24218 0 5 30.2 24.7 26.5 
25119 0 5 30.2 23.6 27.5 
26078 0 5 32.4 24.7 28.5 
1712 0 5 30.2 31.3 1.5 
4469 0 5 31.3 31.3 4.5 
5368 0 5 31.3 30.2 5.5 
6214 0 5 30.2 29.1 6.5 
7107 0 5 29.1 29.1 7.5 
7173 0 5 32.4 30.2 7.5 
7109 0 5 29.1 31.3 7.5 
9871 0 5 32.4 32.4 10.5 
12570 0 5 31.3 32.4 13.5 
13474 0 5 32.4 29.1 14.5 
13412 0 5 30.2 31.3 14.5 
14371 0 5 32.4 32.4 15.5 
17912 0 5 30.2 31.3 19.5 
18809 0 5 29.1 31.3 20.5 
19714 0 5 30.2 29.1 21.5 
21570 0 5 31.3 32.4 23.5 
24210 0 5 29.1 32.4 26.5 
26014 0 5 30.2 29.1 28.5 
26968 0 5 31.3 30.2 29.5 
ITEM: TIMESTEP
100000
ITEM: NUMBER OF ATOMS
950
ITEM: BOX BOUNDS pp pp pp
0.0000000000000000e+00 3.4000000000000000e+01
0.0000000000000000e+00 3.4000000000000000e+01
0.0000000000000000e+00 3.4000000000000000e+01
ITEM: ATOMS id mol type x y z 
7282 0 5 4.41203 0.645199 0.813057 
1049 0 5 2.97245 2.20296 1.56024 
4507 0 5 0.493551 4.30038 1.23957 
26367 0 5 2.9603 0.406994 0.416642 
7173 0 5 0.554615 0.460617 2.64257 
3755 0 5 4.31364 1.67358 5.44014 
11691 0 5 1.20785 3.50509 5.57603 
11581 0 5 1.43138 2.41151 10.2346 
14371 0 5 3.30171 2.96854 12.2868 
17223 0 5 2.15797 1.52634 12.8906 
18964 0 5 2.53785 2.73853 14.6121 
20636 0 5 1.63133 3.88707 14.1465 
7350 0 5 3.64523 2.75137 14.3224 
18126 0 5 2.37759 5.48062 16.6173 
9149 0 5 4.84686 1.4041 18.5015 
20033 0 5 5.66518 3.38177 20.831 
16225 0 5 1.11347 1.74627 20.7125 
18097 0 5 2.23796 1.46818 23.3628 
20855 0 5 0.578184 4.5195 25.4168 
22617 0 5 2.81004 4.38812 24.9701 
19047 0 5 4.31692 4.13332 24.986 
905 0 5 2.0327 2.97862 26.5298 
25197 0 5 1.65069 1.90302 27.1272 
152 0 5 5.19545 4.12485 33.6761 
25325 0 5 2.38246 3.72234 29.8671 
18958 0 5 0.876761 1.20531 30.9432 
1929 0 5 3.66352 3.83842 31.9181 
25199 0 5 0.206554 0.508477 29.2892 
1886 0 5 3.6085 6.34816 0.292436 
1794 0 5 1.9325 7.44449 1.51742 
4635 0 5 0.622227 11.0289 1.52663 
5469 0 5 0.3903 8.78861 5.1266 
8051 0 5 3.88233 7.65969 6.65398 
5512 0 5 3.93049 6.3883 7.36848 
6365 0 5 4.00253 9.16544 8.53011 
9245 0 5 2.01859 10.4785 9.24978 
6361 0 5 1.45595 5.71068 10.4117 
8106 0 5 3.36551 10.9555 11.8499 
13685 0 5 3.86621 5.89931 13.7841 
13508 0 5 2.09892 7.37354 14.7407 
16136 0 5 3.0759 7.72103 14.3778 
12954 0 5 5.27863 11.244 12.9084 
13510 0 5 1.11515 8.41194 19.1567 
20086 0 5 4.29085 9.41294 21.7063 
20809 0 5 5.40961 9.38925 25.524 
22571 0 5 0.939969 9.7106 26.756 
1086 0 5 1.63146 8.79915 27.4036 
20953 0 5 4.68481 8.40008 27.9209 
25451 0 5 5.21913 11.3194 25.4727 
2827 0 5 2.592 9.46594 28.7635 
26112 0 5 1.38598 11.0472 29.4785 
21793 0 5 4.90895 9.32529 30.3185 
1903 0 5 4.54662 15.8489 0.535474 
1905 0 5 4.78165 11.783 1.75524 
1001 0 5 1.61382 16.4327 1.36178 
1934 0 5 2.1873 16.1064 2.63927 
2767 0 5 3.5659 16.8386 0.533869 
6314 0 5 1.44874 16.9525 4.72306 
3774 0 5 2.66339 12.9893 0.0919063 
8929 0 5 0.345828 14.3892 6.14341 
11712 0 5 2.21182 11.3732 8.46947 
5350 0 5 1.42504 16.4367 7.31092 
9909 0 5 1.51375 12.96 10.0216 
11752 0 5 4.81997 12.3032 9.28408 
7267 0 5 4.40642 11.7232 6.36037 
6227 0 5 0.014066 11.5398 9.21872 
5292 0 5 2.12788 14.1663 12.4416 
19063 0 5 5.36106 16.5683 16.5787 
11748 0 5 0.514577 15.93 14.6383 
16271 0 5 0.855013 13.5817 14.5224 
17345 0 5 4.74624 11.5027 13.9923 
15614 0 5 3.66606 15.1414 17.824 
16308 0 5 1.43699 12.1598 19.7405 
17210 0 5 3.11649 16.0223 18.7877 
20057 0 5 3.7348 12.0224 20.3974 
18795 0 5 0.292527 16.7256 21.889 
14473 0 5 4.65511 15.3752 19.7916 
21674 0 5 1.14452 14.3122 22.0987 
21653 0 5 0.816221 15.5261 22.0453 
19995 0 5 5.61886 15.0159 19.612 
24559 0 5 5.6743 12.4402 25.7354 
17147 0 5 1.12322 14.5777 25.2398 
24435 0 5 5.06338 18.8399 0.693098 
83 0 5 1.80669 19.7878 1.13619 
1723 0 5 0.542621 21.192 4.78003 
11686 0 5 5.39462 19.4398 6.6291 
9972 0 5 0.826989 17.7 7.0208 
9975 0 5 3.8205 18.8818 11.8775 
9047 0 5 3.61102 18.0155 12.7182 
14591 0 5 1.53545 18.8823 16.823 
19039 0 5 1.88464 19.8179 20.4392 
18081 0 5 1.27676 18.5799 23.6219 
21675 0 5 0.377193 19.5713 23.434 
19965 0 5 4.63219 19.4793 24.0839 
15340 0 5 2.64886 22.3907 24.3947 
18973 0 5 3.87941 21.64 25.1127 
21816 0 5 3.27991 19.2029 25.9774 
22644 0 5 0.487082 20.8163 22.9084 
975 0 5 0.716597 22.393 28.6137 
26085 0 5 2.06516 17.9298 31.193 
25298 0 5 1.90222 19.8712 32.6947 
6277 0 5 0.600654 26.3315 2.51477 
4697 0 5 3.65366 23.9779 4.09377 
7342 0 5 4.5968 25.0488 11.3117 
10950 0 5 0.163773 27.5758 7.61158 
6399 0 5 1.45702 27.1434 9.7525 
12699 0 5 1.83881 23.5702 10.4479 
9196 0 5 3.16582 24.4117 12.5157 
8239 0 5 1.92001 27.6471 14.8896 
14622 0 5 4.56708 24.2456 17.5968 
18077 0 5 3.78722 27.771 17.643 
16215 0 5 0.135694 25.6877 19.0628 
17118 0 5 0.129336 24.9863 17.9379 
18337 0 5 1.33292 23.7752 21.998 
17195 0 5 0.433448 25.1331 25.1505 
24445 0 5 4.97005 26.186 27.0566 
1882 0 5 4.35414 22.7035 33.7967 
2681 0 5 3.83506 23.3363 31.9409 
26868 0 5 0.722204 24.7302 33.6184 
6418 0 5 2.03228 32.2629 0.947032 
6402 0 5 3.74656 28.4673 4.7351 
6505 0 5 3.15867 32.0311 3.97409 
8247 0 5 4.42399 32.9595 4.22775 
7287 0 5 1.6558 29.0338 7.45279 
10961 0 5 4.87349 30.4084 7.76179 
13474 0 5 1.01399 32.71 9.5974 
11009 0 5 1.29855 31.1684 10.1842 
9871 0 5 4.1564 32.5043 9.71095 
10503 0 5 1.54466 32.2947 12.2489 
9057 0 5 2.86579 28.8598 12.2765 
11825 0 5 2.47369 32.3191 13.0391 
11042 0 5 5.14304 33.4917 12.3728 
12720 0 5 2.01553 32.7741 14.3415 
9239 0 5 3.76233 33.5255 14.4794 
12700 0 5 0.420024 29.1631 15.7619 
13539 0 5 1.03277 29.8885 15.3043 
14384 0 5 4.59676 28.6653 18.2074 
14611 0 5 2.58191 30.9375 20.3948 
20799 0 5 2.80223 31.4279 21.3741 
23343 0 5 1.92048 30.3527 23.3715 
21642 0 5 2.05222 29.0124 23.9432 
2752 0 5 5.41018 31.8524 28.2577 
25207 0 5 1.44079 32.1273 25.0523 
22530 0 5 3.43048 28.6393 25.8133 
26157 0 5 4.09244 31.7663 26.4358 
23848 0 5 4.60436 32.8448 25.9578 
21783 0 5 3.45805 32.9286 27.7421 
20910 0 5 0.643131 33.9014 28.2917 
898 0 5 2.85166 32.7898 30.4185 
178 0 5 1.27747 33.2829 30.6141 
3698 0 5 0.671524 28.6441 34.0033 
4828 0 5 11.2763 3.74522 5.089 
2008 0 5 10.074 3.30044 1.55711 
5646 0 5 8.99278 1.59116 3.33551 
3668 0 5 6.54038 1.91245 3.9533 
5456 0 5 6.31262 3.92525 4.59242 
4804 0 5 7.95037 0.079032 4.88618 
5785 0 5 9.64026 1.16052 5.43134 
4796 0 5 7.34346 2.75507 6.05186 
4629 0 5 7.22277 4.7746 6.21079 
8275 0 5 7.87845 5.1136 8.03621 
9300 0 5 10.1544 1.19539 8.6987 
5546 0 5 7.23007 2.19448 9.61205 
9423 0 5 10.1424 3.09248 9.70317 
13738 0 5 5.89416 2.94707 7.32887 
15427 0 5 7.84441 4.28671 12.2498 
15659 0 5 7.87294 1.8198 13.2984 
9265 0 5 8.11179 4.62098 14.2827 
13710 0 5 8.78661 2.89987 16.6918 
16383 0 5 7.24085 0.297073 15.0447 
19138 0 5 6.90521 2.73791 17.7763 
21789 0 5 10.0578 3.89374 18.5589 
18330 0 5 7.27794 1.16306 19.1135 
20214 0 5 10.6483 4.88386 20.3035 
19173 0 5 8.61503 2.52959 22.2768 
19074 0 5 7.6643 3.04674 21.7752 
23764 0 5 9.40651 1.66718 24.3642 
21889 0 5 6.81382 2.67905 23.8638 
21033 0 5 10.9692 3.26701 24.2392 
22621 0 5 10.1668 0.821145 24.999 
25558 0 5 6.77219 3.61063 24.772 
18446 0 5 10.8157 3.11424 25.6775 
20762 0 5 8.01517 1.98574 27.3749 
25676 0 5 9.57827 3.52868 29.7426 
93 0 5 9.79817 0.797309 30.6388 
66 0 5 9.58777 3.17698 31.0152 
25290 0 5 9.55891 2.51791 31.9795 