ITEM: TIMESTEP
7000000
ITEM: NUMBER OF ATOMS
950
ITEM: BOX BOUNDS pp pp pp
7.3412088962025734e-01 3.3265879110386273e+01
7.3412088962025734e-01 3.3265879110386273e+01
7.3412088962025734e-01 3.3265879110386273e+01
ITEM: ATOMS id mol type x y z 
27224 312 4 2.40264 2.51159 18.1277 
27301 316 4 1.39016 2.33567 18.3898 
27300 316 4 2.37284 2.48113 18.0981 
27225 312 4 1.4202 2.3779 18.4257 
27214 312 4 2.52253 3.71381 18.404 
27290 316 4 2.48026 3.68175 18.3862 
27291 316 4 1.57872 3.29794 18.5862 
27215 312 4 1.61857 3.34018 18.6122 
27210 312 4 1.81693 4.30246 18.7986 
27286 316 4 1.76727 4.26021 18.7826 
27299 316 4 3.19326 3.10329 17.9898 
27223 312 4 3.22813 3.12515 18.0094 
27298 316 4 3.63158 4.03545 18.094 
27222 312 4 3.6755 4.05417 18.1026 
27289 316 4 2.66882 4.64402 18.5826 
27213 312 4 2.7209 4.67609 18.5904 
27221 312 4 3.62487 5.04972 18.3823 
27297 316 4 3.57037 5.02783 18.3827 
27296 316 4 3.02602 5.81452 18.7785 
27220 312 4 3.0898 5.84503 18.7735 
27292 316 4 0.865724 3.8764 18.9826 
27216 312 4 0.912965 3.92883 19.0068 
27288 316 4 1.95583 5.22247 18.979 
27212 312 4 2.0153 5.26474 18.985 
27211 312 4 1.11133 4.89111 19.1932 
27218 312 4 1.23123 6.09333 19.4695 
27287 316 4 1.05428 4.83866 19.179 
27294 316 4 1.1617 6.03928 19.4671 
27219 312 4 2.21366 6.22702 19.1714 
27295 316 4 2.14438 6.18474 19.1754 
27882 347 4 3.75651 21.7985 25.7625 
27883 347 4 2.77967 22.0178 26.0262 
27893 347 4 4.73952 22.0973 25.635 
27876 347 4 3.76802 22.7656 26.0167 
27891 347 4 5.73939 23.8122 25.8797 
27892 347 4 5.4653 22.8344 25.6779 
27881 347 4 4.62242 23.2836 25.9744 
27884 347 4 2.07074 22.6967 26.3555 
27885 347 4 1.81969 23.6532 26.6621 
27877 347 4 2.92514 23.2147 26.3132 
27875 347 4 3.77954 23.7327 26.2709 
27878 347 4 2.93666 24.1818 26.5674 
27886 347 4 2.09378 24.631 26.8639 
27887 347 4 2.81957 25.3681 26.9068 
27888 347 4 3.80258 25.6669 26.7793 
27879 347 4 3.79106 24.6998 26.5251 
27889 347 4 4.77941 25.4475 26.5156 
27880 347 4 4.63394 24.2507 26.2286 
27890 347 4 5.48834 24.7687 26.1863 
27794 342 4 10.9908 6.67881 0.907422 
27795 342 4 10.4349 7.36231 1.45121 
27785 342 4 11.0449 7.91679 0.885023 
27796 342 4 10.2059 8.34295 1.69158 
27797 342 4 10.3651 9.35798 1.56412 
27786 342 4 11.01 8.91463 0.94148 
27798 342 4 10.8699 10.1354 1.10299 
27049 303 4 9.67294 7.57494 14.3759 
27041 303 4 8.78188 7.86498 15.187 
27050 303 4 10.3188 7.084 15.0191 
27047 303 4 7.89825 8.47673 14.5697 
27048 303 4 8.78695 8.08471 14.2114 
27045 303 4 8.00581 7.92586 16.7343 
27043 303 4 9.54274 7.14489 16.5664 
27039 303 4 8.77681 7.64524 16.1626 
27042 303 4 9.54781 7.36462 15.5908 
27052 303 4 10.3087 6.64453 16.9703 
27051 303 4 10.5515 6.74345 15.9687 
27046 303 4 7.24495 8.64595 15.3549 
27057 303 4 7.00212 8.54703 16.3565 
27040 303 4 8.01088 8.1456 15.7587 
27055 303 4 7.88068 7.71555 17.9493 
27054 303 4 8.76666 7.20578 18.1138 
27044 303 4 8.77174 7.42551 17.1382 
27053 303 4 9.65537 6.81376 17.7554 
27056 303 4 7.23481 8.20648 17.3061 
27828 344 4 7.28579 17.1392 8.45962 
27829 344 4 6.74931 17.2658 9.336 
27821 344 4 7.70959 17.3011 9.61297 
27827 344 4 8.19314 17.0655 7.96649 
27826 344 4 9.22822 17.0643 7.98875 
27819 344 4 9.39178 17.2362 9.20519 
27820 344 4 8.4315 17.2009 8.92822 
27825 344 4 10.1137 17.136 8.52043 
27836 344 4 10.6123 17.2615 9.41908 
27830 344 4 6.72743 17.4113 10.3608 
27822 344 4 7.94795 17.4366 10.5747 
27831 344 4 7.22603 17.5368 11.2595 
27818 344 4 8.66986 17.3364 9.88995 
27823 344 4 8.90822 17.4719 10.8517 
27824 344 4 9.63014 17.3717 10.1669 
27835 344 4 10.5904 17.407 10.4439 
27834 344 4 10.0539 17.5336 11.3203 
27832 344 4 8.1115 17.6085 11.7911 
27833 344 4 9.14658 17.6073 11.8134 
27031 302 4 10.7265 23.9688 1.6911 
27922 349 4 10.6977 23.9196 1.73716 
27852 345 4 10.7571 23.9289 1.73001 
27030 302 4 10.8028 23.3329 2.50457 
27921 349 4 10.7906 24.8406 1.27348 
27853 345 4 10.8517 24.8637 1.29521 
27032 302 4 10.8394 24.9102 1.27522 
27854 345 4 11.1062 25.8646 1.36761 
27033 302 4 11.1112 25.9048 1.36836 
27920 349 4 11.0479 25.8427 1.31342 
27843 345 4 11.2775 25.4875 2.27785 
27914 349 4 11.2259 25.4929 2.23322 
27024 302 4 11.2719 25.5069 2.27163 
27842 345 4 11.1029 24.5197 2.45905 
27915 349 4 11.0508 24.5314 2.44509 
27023 302 4 11.0796 24.5389 2.43301 
27931 349 4 11.4005 26.6573 1.84628 
27034 302 4 11.4692 26.6862 1.94556 
27855 345 4 11.4526 26.6635 1.9278 
27923 349 4 10.794 23.3264 2.58022 
27850 345 4 11.0995 23.1747 3.5505 
27029 302 4 11.0479 23.173 3.49766 
27851 345 4 10.8478 23.3107 2.5555 
27924 349 4 11.0537 23.22 3.57677 
27022 302 4 11.2403 24.141 3.33628 
27841 345 4 11.2741 24.1425 3.3693 
27916 349 4 11.2288 24.1816 3.3649 
27837 345 4 11.4487 25.1104 3.1881 
27020 302 4 11.4327 25.109 3.17491 
27913 349 4 11.4039 25.1431 3.15303 
27925 349 4 11.4073 23.6289 4.45978 
27849 345 4 11.4448 23.5573 4.44839 
27028 302 4 11.3961 23.5317 4.40426 
27747 340 4 16.7423 9.43396 1.14559 
27756 340 4 16.2972 10.5803 1.30016 
27784 342 4 11.6897 7.47344 32.7941 
27793 342 4 11.7246 6.4756 32.7377 
27792 342 4 12.4397 6.80713 32.0664 
27791 342 4 12.9446 7.58457 31.6053 
27750 340 4 16.4983 6.91568 32.2408 
27751 340 4 15.7088 7.37605 31.7544 
27743 340 4 16.8294 7.84714 32.9884 
27780 342 4 11.6548 8.47128 32.8506 
27781 342 4 11.62 9.46912 32.9071 
27789 342 4 12.8748 9.58025 31.7182 
27783 342 4 12.2997 8.02792 32.228 
27782 342 4 12.2648 9.02576 32.2844 
27790 342 4 13.1038 8.5996 31.4779 
27752 340 4 15.1039 8.20402 31.6115 
27753 340 4 14.8457 9.17774 31.8504 
27746 340 4 15.9662 9.64883 33.0844 
27742 340 4 16.3978 8.74799 33.0364 
27744 340 4 16.0533 8.06202 32.3954 
27745 340 4 15.6217 8.96286 32.4434 
27787 342 4 11.5851 10.467 32.9635 
27788 342 4 12.3189 10.2637 32.262 
27754 340 4 15.0033 10.0363 32.4071 
27755 340 4 15.5346 10.5497 33.1323 
27814 343 4 13.1175 22.3099 20.1509 
27947 350 4 13.1704 22.3066 20.1801 
27815 343 4 13.771 22.2438 20.9512 
27946 350 4 13.8561 22.2452 20.9534 
27415 322 4 13.4576 22.3124 29.2953 
27237 313 4 14.0853 21.689 29.6198 
27406 322 4 15.1867 22.3181 29.397 
27230 313 4 15.1185 22.334 29.3907 
27238 313 4 13.3914 22.3696 29.2633 
27246 313 4 16.8456 22.2984 29.518 
27407 322 4 16.9159 22.3237 29.4987 
27416 322 4 14.1717 21.6567 29.6584 
27417 322 4 15.1639 21.419 29.8343 
27236 313 4 15.0693 21.4247 29.8041 
27418 322 4 16.1684 21.6632 29.7759 
27247 313 4 16.0796 21.6478 29.7668 
27646 334 4 14.4201 23.852 1.07191 
27721 338 4 14.444 23.8434 1.08364 
27873 346 4 12.8668 25.1431 1.49079 
27621 333 4 12.8793 25.0787 1.38055 
27622 333 4 13.208 25.9817 1.76582 
27722 338 4 14.7409 24.3515 1.93544 
27645 334 4 14.6773 24.3706 1.93024 
27710 338 4 14.7293 24.7457 0.760492 
27634 334 4 14.844 25.0115 1.18083 
27711 338 4 15.1111 25.2071 2.38582 
27644 334 4 15.0239 25.2327 2.38695 
27705 338 4 15.0629 25.4276 1.41158 
27633 334 4 15.1888 25.9298 1.37556 
27857 346 4 13.2969 26.6456 0.743991 
27613 333 4 13.1446 26.1292 0.77875 
27874 346 4 13.2082 26.0589 1.83212 
27863 346 4 13.5149 27.0292 1.64142 
27623 333 4 13.5027 26.9638 1.62213 
27624 333 4 13.6845 27.7617 0.98797 
27864 346 4 13.7048 27.7939 0.969785 
27641 334 4 15.7003 27.4889 0.820875 
27712 338 4 15.4554 26.1808 2.31411 
27706 338 4 15.3482 26.33 1.08843 
27643 334 4 15.3669 26.2072 2.31969 
27713 338 4 15.6817 27.0118 1.73952 
27642 334 4 15.6145 27.0331 1.74646 
27714 338 4 15.7292 27.4774 0.816013 
27021 302 4 11.5934 24.7111 4.07818 
27026 302 4 11.7858 25.6791 3.91681 
27918 349 4 11.757 25.7548 3.86097 
27839 345 4 11.7945 25.7012 3.91715 
27840 345 4 11.6199 24.7333 4.09835 
27917 349 4 11.5819 24.7933 4.07284 
27838 345 4 11.6233 26.0783 3.0069 
27844 345 4 11.7979 27.0461 2.8257 
27930 349 4 11.7541 27.0662 2.72929 
27035 302 4 11.8174 27.045 2.85216 
27025 302 4 11.625 26.077 3.01353 
27929 349 4 12.0138 26.9598 3.72584 
27036 302 4 12.0625 26.885 3.84524 
27845 345 4 12.0496 26.9101 3.8207 
27919 349 4 11.579 26.1046 2.94116 
27027 302 4 11.7541 24.3131 4.98146 
27926 349 4 11.76 24.4435 4.99264 
27848 345 4 11.7912 24.3562 5.00859 
27927 349 4 12.0172 25.4456 5.03259 
27038 302 4 12.026 25.3078 5.0746 
27847 345 4 12.0457 25.3571 5.08099 
27928 349 4 12.1101 26.3666 4.5689 
27846 345 4 12.1404 26.2919 4.64619 
27037 302 4 12.1389 26.2492 4.65871 
27949 350 4 12.9525 23.4766 18.5727 
27812 343 4 12.9766 23.4769 18.5327 
27811 343 4 13.5269 24.2652 18.1484 
27950 350 4 13.4786 24.2717 18.1692 
27810 343 4 14.3302 24.9148 18.2158 
27939 350 4 14.2771 24.9296 18.2064 
27940 350 4 15.134 25.2741 18.6743 
27809 343 4 15.1713 25.2517 18.7167 
27948 350 4 12.8396 22.7573 19.3087 
27813 343 4 12.8267 22.7612 19.2657 
27803 343 4 13.7238 23.6123 19.1833 
27938 350 4 13.7238 23.6181 19.1933 
27799 343 4 14.4711 23.7478 19.834 
27932 350 4 14.4951 23.7597 19.8139 
27804 343 4 13.7943 23.0288 19.9924 
27937 350 4 13.8327 23.0331 19.997 
27800 343 4 15.2184 23.8832 20.4846 
27935 350 4 15.2664 23.9012 20.4345 
27802 343 4 14.4007 24.3313 19.0249 
27933 350 4 14.3861 24.3446 19.0101 
27801 343 4 15.1479 24.4667 19.6755 
27934 350 4 15.1574 24.4862 19.6307 
27942 350 4 16.1505 24.762 20.319 
27807 343 4 16.1155 24.7344 20.4022 
27808 343 4 15.8248 25.1857 19.517 
27941 350 4 15.8197 25.2127 19.4476 
27945 350 4 14.713 22.5897 21.4213 
27816 343 4 14.6121 22.5808 21.4522 
27805 343 4 14.5416 23.1643 20.6431 
27936 350 4 14.604 23.1747 20.6176 
27944 350 4 15.5115 23.2476 21.4585 
27806 343 4 15.9657 24.0187 21.1352 
27943 350 4 16.0377 24.0428 21.0551 
27817 343 4 15.4154 23.2304 21.5195 
27239 313 4 13.1735 23.2844 28.8302 
27414 322 4 13.2129 23.2106 28.8422 
27405 322 4 14.3336 22.7648 29.1275 
27231 313 4 14.2796 22.8065 29.1203 
27404 322 4 14.3563 23.6638 28.6901 
27232 313 4 14.3289 23.7157 28.7069 
27229 313 4 15.1678 23.2433 28.9773 
27413 322 4 13.5032 24.1105 28.4206 
27240 313 4 13.4899 24.1882 28.4365 
27400 322 4 15.2095 23.2171 28.9597 
27401 322 4 16.0627 22.7704 29.2292 
27402 322 4 16.0855 23.6695 28.7918 
27234 313 4 16.0559 23.6801 28.8343 
27235 313 4 16.0067 22.7708 29.2477 
27233 313 4 15.217 24.1526 28.5639 
27403 322 4 15.2323 24.1162 28.5223 
27409 322 4 16.9614 24.1218 28.624 
27244 313 4 16.9441 24.1169 28.6913 
27412 322 4 14.2507 24.7711 28.1434 
27241 313 4 14.2559 24.8388 28.1877 
27242 313 4 15.2663 25.0618 28.1505 
27411 322 4 15.2551 25.0152 28.085 
27410 322 4 16.2473 24.7776 28.2609 
27243 313 4 16.2502 24.7976 28.3348 
27618 333 4 12.4778 24.7917 31.1271 
27870 346 4 12.4528 24.73 31.2551 
27617 333 4 12.6596 25.5896 30.493 
27869 346 4 12.6427 25.4947 30.5835 
27637 334 4 14.6545 25.0974 31.0749 
27718 338 4 14.5739 25.1153 31.0923 
27616 333 4 12.9543 26.5716 30.3493 
27868 346 4 12.9495 26.465 30.3928 
27610 333 4 13.0178 26.4242 31.3364 
27627 333 4 13.2831 27.4746 30.7346 
27867 346 4 13.2909 27.3808 30.7341 
27638 334 4 14.9975 26.0719 31.0077 
27717 338 4 14.9182 26.0891 31.0206 
27635 334 4 14.3211 23.8157 32.5737 
27720 338 4 14.3001 23.8188 32.5904 
27860 346 4 12.8608 25.8783 31.4809 
27619 333 4 12.4577 24.3917 32.0818 
27871 346 4 12.4307 24.3758 32.2277 
27872 346 4 12.5822 24.527 33.2407 
27620 333 4 12.6047 24.4967 33.1013 
27611 333 4 12.7795 25.5342 31.7253 
27861 346 4 12.7548 25.3189 32.303 
27612 333 4 12.8429 25.3867 32.7124 
27862 346 4 12.9728 25.7025 33.2004 
27636 334 4 14.4069 24.2716 31.6481 
27719 338 4 14.3476 24.2844 31.6669 
27629 334 4 14.6659 24.734 32.7685 
27709 338 4 14.6811 24.9662 32.318 
27630 334 4 14.8326 25.3749 32.0191 
27708 338 4 14.9664 25.8686 31.9949 
27704 338 4 15.0147 25.6481 32.9691 
27628 334 4 15.0107 25.6523 32.9632 
27615 333 4 13.3194 27.1667 31.9345 
27859 346 4 13.1849 26.8214 31.5562 
27614 333 4 13.3828 27.0192 32.9216 
27856 346 4 13.0788 26.262 32.3783 
27609 333 4 13.0812 26.2767 32.3234 
27858 346 4 13.4029 27.205 32.4536 
27631 334 4 15.1774 26.2932 32.2138 
27632 334 4 15.3555 26.5706 33.1579 
27715 338 4 15.5853 27.4528 32.3228 
27707 338 4 15.3 26.5505 32.6459 
27716 338 4 15.2884 26.9447 31.471 
27639 334 4 15.3441 26.934 31.4644 
27640 334 4 15.6013 27.4527 32.3227 
27866 346 4 13.5755 27.9969 31.516 
27625 333 4 13.7046 28.1617 32.565 
27865 346 4 13.727 28.1481 32.5289 
27626 333 4 13.5577 28.0566 31.5456 
27695 337 4 18.3551 1.30552 2.36959 
27901 348 4 18.3461 1.37401 2.33681 
27912 348 4 18.5012 2.35592 2.04751 
27696 337 4 18.5032 2.28438 2.06666 
27697 337 4 19.0782 3.14536 2.06556 
27911 348 4 19.0789 3.21491 2.06396 
27910 348 4 19.9244 3.72082 2.38176 
27698 337 4 19.926 3.65774 2.36657 
27687 337 4 19.3849 1.15772 3.04313 
27895 348 4 19.2123 1.6356 2.7627 
27688 337 4 19.2998 2.06439 2.62987 
27896 348 4 19.7121 0.97673 3.32501 
27686 337 4 20.1814 0.93772 3.60635 
27894 348 4 20.0784 1.89718 3.18858 
27685 337 4 20.0963 1.84439 3.19309 
27897 348 4 20.5782 1.23832 3.7509 
27691 337 4 20.8928 1.6244 3.7563 
27898 348 4 20.9446 2.15877 3.61447 
27906 348 4 21.6557 1.43844 4.32966 
27702 337 4 21.6894 1.4044 4.31951 
27907 348 4 21.8108 2.42035 4.04036 
27701 337 4 21.8375 2.38327 4.01658 
27690 337 4 20.8077 2.53107 3.34304 
27900 348 4 19.5787 2.55605 2.62627 
27689 337 4 20.0111 2.75106 2.77983 
27899 348 4 20.4448 2.81763 3.05216 
27909 348 4 20.8112 3.73809 2.91574 
27699 337 4 20.8194 3.68423 2.88905 
27700 337 4 21.5191 3.21774 3.493 
27908 348 4 21.5017 3.26208 3.52283 
27760 340 4 17.7923 7.45965 1.13391 
27759 340 4 17.9499 8.31823 1.69058 
27758 340 4 17.6917 9.29195 1.92947 
27748 340 4 17.1739 8.53311 1.09759 
27757 340 4 17.0868 10.1199 1.78657 
27561 330 4 18.4642 7.92527 21.5845 
27485 326 4 18.4754 7.90189 21.6538 
27560 330 4 19.4961 7.89971 21.6646 
27484 326 4 19.5065 7.87551 21.7437 
27562 330 4 17.5925 8.44979 21.3921 
27486 326 4 17.607 8.42373 21.4405 
27487 326 4 17.1341 9.30121 21.1609 
27563 330 4 17.1147 9.33271 21.1391 
27479 326 4 18.1084 9.5261 21.1769 
27555 330 4 18.0884 9.56004 21.1525 
27554 330 4 18.7632 8.85633 21.3751 
27478 326 4 18.779 8.82644 21.4234 
27483 326 4 20.424 8.35167 21.6859 
27559 330 4 20.4117 8.37995 21.6111 
27476 326 4 19.0827 9.75099 21.1929 
27553 330 4 19.7369 9.08366 21.3885 
27477 326 4 19.7533 9.05133 21.4394 
27570 330 4 20.9657 9.23731 21.4383 
27494 326 4 20.9821 9.20278 21.4961 
27488 326 4 17.1832 10.2992 20.8898 
27564 330 4 17.1586 10.3375 20.8933 
27565 330 4 17.7127 11.1948 20.7205 
27489 326 4 17.7413 11.1503 20.7 
27556 330 4 18.3874 10.4911 20.9432 
27480 326 4 18.412 10.4507 20.9465 
27568 330 4 20.5319 11.125 20.9395 
27481 326 4 19.3863 10.6755 20.9625 
27552 330 4 19.0622 9.78738 21.1658 
27558 330 4 20.036 10.0147 21.1792 
27482 326 4 20.0569 9.97588 21.209 
27492 326 4 20.5583 11.0783 20.9454 
27557 330 4 19.3612 10.7184 20.9565 
27493 326 4 21.0312 10.2008 21.225 
27569 330 4 21.0097 10.2421 21.1925 
27749 340 4 17.2609 6.94629 32.9404 
27508 327 4 20.5114 15.4079 0.745254 
27584 331 4 20.54 15.3688 0.77397 
27498 327 4 21.8916 16.3228 1.25352 
27575 331 4 21.5336 15.4709 0.824203 
27499 327 4 21.5035 15.51 0.818958 
27583 331 4 20.6925 16.2906 1.22016 
27507 327 4 20.6526 16.3148 1.22424 
27574 331 4 21.9318 16.2965 1.22407 
27566 330 4 18.6283 11.6751 20.667 
27490 326 4 18.6588 11.6265 20.6422 
27491 326 4 19.6899 11.6001 20.7321 
27567 330 4 19.6602 11.6495 20.7472 
27148 308 4 22.4014 15.0702 26.3724 
27111 306 4 22.4049 15.0852 26.4037 
27500 327 4 22.1074 14.7993 32.9899 
27509 327 4 20.9018 14.5557 32.8375 
27576 331 4 22.1289 14.7474 33.0063 
27586 331 4 21.7306 13.9218 32.6065 
27510 327 4 21.7193 13.9865 32.5553 
27585 331 4 20.92 14.5018 32.8865 
27506 327 4 21.2876 17.0334 1.61439 
27582 331 4 21.3365 17.02 1.57371 
27581 331 4 22.2996 17.3617 1.73989 
27505 327 4 22.2463 17.3712 1.81114 
27540 329 4 20.3187 21.7974 16.5529 
27260 314 4 20.3138 21.7955 16.6132 
27258 314 4 22.1647 21.0426 16.7 
27542 329 4 22.1515 21.0011 16.636 
27251 314 4 21.489 21.9885 16.2701 
27534 329 4 21.0926 22.2801 16.1429 
27259 314 4 21.1478 21.2106 16.798 
27541 329 4 21.1374 21.1883 16.7277 
27535 329 4 22.009 21.8819 16.1844 
27527 328 4 22.1829 21.1348 18.7162 
27526 328 4 21.8865 22.0996 18.9467 
27518 328 4 22.1955 21.1777 19.7152 
27517 328 4 21.9422 22.0248 20.1826 
27515 328 4 22.2207 21.2636 21.7133 
27514 328 4 22.2081 21.2206 20.7143 
27516 328 4 21.9548 22.0677 21.1816 
27522 328 4 21.9302 22.2483 22.4075 
27521 328 4 22.2334 21.3065 22.7124 
27263 314 4 20.5682 24.1961 15.139 
27548 329 4 21.5817 24.5244 14.8297 
27264 314 4 21.4954 24.4899 14.7843 
27549 329 4 20.6439 24.2397 15.1635 
27261 314 4 19.886 22.6404 16.1949 
27551 329 4 19.9147 22.6652 16.1583 
27550 329 4 20.0338 23.5591 15.6498 
27262 314 4 19.9791 23.5191 15.6554 
27538 329 4 21.7241 23.6436 15.2813 
27533 329 4 21.8666 22.7627 15.7328 
27252 314 4 20.858 22.7034 15.9685 
27253 314 4 21.1992 23.4812 15.4406 
27539 329 4 20.9502 23.1609 15.6913 
27248 314 4 21.8301 22.7663 15.7421 
27254 314 4 22.1712 23.5441 15.2142 
27525 328 4 21.6763 22.8289 19.6509 
27523 328 4 21.7015 22.9148 21.6489 
27524 328 4 21.6085 23.1273 20.6399 
27408 322 4 17.2061 23.2236 29.0771 
27245 313 4 17.162 23.2021 29.1244 
27902 348 4 18.6552 33.064 2.85434 
27694 337 4 18.6735 33.0028 2.89318 
27903 348 4 19.3457 32.588 3.46143 
27693 337 4 19.3732 32.5363 3.49712 
27904 348 4 20.2325 32.6053 3.99541 
27692 337 4 20.2666 32.5628 4.0196 
27703 337 4 21.1144 33.0752 4.32062 
27905 348 4 21.078 33.1112 4.31321 
27473 325 4 26.9629 2.8472 5.5035 
27462 325 4 27.4944 3.93649 5.76225 
27072 304 4 26.9284 2.8106 5.54755 
27063 304 4 27.4727 3.90132 5.77138 
27073 304 4 27.1896 3.55492 4.87698 
27472 325 4 27.2193 3.61375 4.85657 
27074 304 4 27.6025 4.48488 4.68572 
27471 325 4 27.6232 4.55325 4.69499 
27474 325 4 26.9225 2.45901 6.46244 
27071 304 4 26.889 2.45135 6.51774 
27062 304 4 27.3224 3.34953 6.59176 
27463 325 4 27.346 3.35912 6.56519 
27058 304 4 27.7559 4.24771 6.66577 
27457 325 4 27.7695 4.25922 6.66794 
27070 304 4 27.0818 2.57344 7.5276 
27475 325 4 27.1091 2.55318 7.47645 
27061 304 4 27.6055 3.69593 7.48615 
27458 325 4 27.6211 3.68186 7.47087 
27464 325 4 27.4726 3.10449 8.27381 
27069 304 4 27.4552 3.14414 8.30653 
27353 319 4 22.9034 2.3735 29.4063 
27352 319 4 23.1266 1.36266 29.4228 
27345 319 4 23.851 1.79644 29.9587 
27360 319 4 26.0227 1.1145 31.3076 
27349 319 4 25.299 1.67236 30.901 
27343 319 4 24.5754 2.23023 30.4945 
27344 319 4 24.5746 1.23858 30.3652 
27346 319 4 23.8518 2.78809 30.088 
27354 319 4 23.1282 3.34596 29.6814 
27355 319 4 23.7409 4.01945 30.1744 
27348 319 4 25.2999 2.66401 31.0304 
27347 319 4 24.5763 3.22187 30.6238 
27356 319 4 24.5771 4.21352 30.7531 
27357 319 4 25.4129 3.87617 31.2626 
27359 319 4 26.2475 2.08695 31.5827 
27358 319 4 26.0243 3.09779 31.5662 
27684 336 4 27.5794 7.80439 3.33524 
27019 301 4 27.6029 7.8125 3.32695 
27018 301 4 26.7205 8.3021 3.55834 
27683 336 4 26.6942 8.28763 3.56942 
27682 336 4 26.0898 8.76677 4.26008 
27017 301 4 26.1142 8.77903 4.24887 
27445 324 4 27.3217 10.1598 3.45595 
27606 332 4 27.3016 10.1566 3.41861 
27681 336 4 25.9281 9.11341 5.22215 
27016 301 4 25.9465 9.1155 5.21352 
27666 336 4 27.742 8.27231 5.27301 
27670 336 4 27.359 8.6852 6.09937 
27005 301 4 27.3639 8.66151 6.09948 
27007 301 4 27.2357 8.27846 4.41511 
27672 336 4 27.2181 8.27997 4.42121 
27671 336 4 26.835 8.69286 5.24758 
27006 301 4 26.8487 8.68516 5.2427 
27001 301 4 27.7509 8.25481 5.27189 
27607 332 4 27.1038 10.4936 4.37736 
27456 324 4 27.1175 10.4867 4.41684 
27608 332 4 27.3945 10.6118 5.36399 
27455 324 4 27.4057 10.6038 5.40433 
27015 301 4 26.2622 9.22134 6.19381 
27680 336 4 26.2524 9.23469 6.19785 
27679 336 4 26.9759 9.0981 6.92574 
27014 301 4 26.9769 9.06821 6.92707 
27336 318 4 26.8174 11.4583 13.5916 
27180 310 4 26.8694 11.4524 13.5713 
27335 318 4 27.7924 11.1471 13.7479 
27497 327 4 22.8836 16.4249 1.32723 
27573 331 4 22.9254 16.3986 1.2743 
27571 331 4 22.5271 15.573 0.874436 
27495 327 4 22.4955 15.6121 0.892661 
27572 331 4 23.5207 15.675 0.924669 
27496 327 4 23.4876 15.7142 0.966365 
27503 327 4 24.0892 16.6685 1.47956 
27579 331 4 24.1342 16.6441 1.39417 
27502 327 4 24.4797 15.8163 1.04007 
27578 331 4 24.5142 15.7771 0.974902 
27741 339 4 27.4879 15.9672 2.05299 
27730 339 4 26.7722 16.4186 2.64958 
27724 339 4 27.6217 16.9066 2.8503 
27338 318 4 25.9603 13.0329 12.705 
27182 310 4 25.9852 13.0276 12.7127 
27181 310 4 26.1871 12.1407 13.2071 
27337 318 4 26.1468 12.1485 13.2099 
27174 310 4 27.0835 12.5114 12.964 
27328 318 4 27.0501 12.5108 12.98 
27175 310 4 27.1488 13.3788 12.4706 
27329 318 4 27.1306 13.3738 12.4811 
27339 318 4 26.3078 13.8745 12.2121 
27183 310 4 26.3177 13.8756 12.2204 
27184 310 4 27.0957 14.4573 11.8622 
27340 318 4 27.0963 14.4477 11.8634 
27276 315 4 24.0694 14.6637 24.2098 
27426 323 4 24.4353 13.7846 24.2007 
27275 315 4 24.5114 13.7277 24.1953 
27380 320 4 24.4398 13.758 24.2188 
27150 308 4 22.9 13.3124 25.5587 
27113 306 4 22.9311 13.3432 25.5737 
27151 308 4 23.4598 12.4968 25.8642 
27209 311 4 23.4514 12.5606 25.8731 
27114 306 4 23.4914 12.5272 25.8774 
27274 315 4 25.0734 12.9941 24.6622 
27369 320 4 25.0019 13.0159 24.6717 
27437 323 4 25.0173 13.0529 24.6455 
27370 320 4 25.5479 12.6731 25.4818 
27285 315 4 25.6047 12.6598 25.4855 
27436 323 4 25.5728 12.7161 25.4517 
27208 311 4 22.9052 13.3875 25.5736 
27112 306 4 22.5334 14.2794 25.7664 
27207 311 4 22.5299 14.3326 25.7682 
27149 308 4 22.5126 14.2544 25.7447 
27427 323 4 23.9827 14.7151 24.2365 
27379 320 4 24.0123 14.7006 24.2442 
27363 320 4 24.972 13.761 25.338 
27268 315 4 25.0162 13.7389 25.3271 
27420 323 4 24.6768 14.1556 25.0975 
27368 320 4 24.4772 14.6034 25.1243 
27269 315 4 24.5142 14.5737 25.1009 
27421 323 4 24.3495 15.0608 25.3688 
27425 323 4 25.2455 13.6213 25.723 
27362 320 4 24.9421 14.5061 26.0044 
27419 323 4 24.9182 14.5265 25.9943 
27267 315 4 24.959 14.4837 25.992 
27277 315 4 23.8657 15.5516 24.7018 
27378 320 4 23.8339 15.5911 24.7413 
27428 323 4 23.7808 15.595 24.7433 
27377 320 4 23.9525 16.1909 25.5769 
27278 315 4 23.955 16.1533 25.5396 
27429 323 4 23.8837 16.1886 25.5853 
27270 315 4 24.457 15.3185 25.7658 
27367 320 4 24.4473 15.3485 25.7906 
27140 308 4 23.5016 13.1403 26.6285 
27192 311 4 23.7827 12.9509 27.0018 
27097 306 4 23.8012 12.9213 27.0108 
27135 308 4 24.017 12.9051 27.4526 
27152 308 4 24.042 12.0261 26.5792 
27103 306 4 24.0643 12.0503 26.5959 
27198 311 4 24.0222 12.0733 26.5863 
27141 308 4 24.4906 12.0263 27.5123 
27199 311 4 24.4646 12.0564 27.5222 
27104 306 4 24.4961 12.0401 27.5368 
27435 323 4 25.9528 12.8643 26.4032 
27284 315 4 25.963 12.8141 26.4445 
27371 320 4 25.9317 12.8214 26.4319 
27206 311 4 22.4261 15.1426 26.4046 
27102 306 4 23.2346 13.5677 26.4998 
27197 311 4 23.2241 13.608 26.4955 
27100 306 4 23.275 14.6633 27.8408 
27195 311 4 23.3035 14.706 27.8328 
27139 308 4 23.028 14.0191 26.5688 
27096 306 4 23.5381 13.7923 27.4258 
27134 308 4 23.5434 13.7838 27.3929 
27191 311 4 23.5431 13.8284 27.4173 
27196 311 4 22.9846 14.4855 26.9109 
27101 306 4 22.9715 14.4387 26.9148 
27138 308 4 23.0698 14.6626 27.3332 
27373 320 4 25.8718 14.3117 27.7645 
27433 323 4 25.8537 14.3379 27.752 
27364 320 4 25.4369 13.6638 26.2181 
27273 315 4 25.461 13.6489 26.2183 
27365 320 4 25.4069 14.4089 26.8844 
27272 315 4 25.4038 14.3937 26.8832 
27423 323 4 25.1597 14.8974 26.891 
27424 323 4 25.487 13.9922 26.6197 
27282 315 4 25.8486 14.3037 27.7743 
27372 320 4 26.0502 13.4212 27.2674 
27434 323 4 26.0557 13.458 27.2452 
27283 315 4 26.0523 13.4158 27.2823 
27205 311 4 22.6216 15.6005 27.3123 
27110 306 4 22.58 15.5445 27.3149 
27147 308 4 22.5962 15.5414 27.2735 
27422 323 4 24.591 15.4317 26.2655 
27280 315 4 24.8446 15.9733 27.3219 
27374 320 4 25.4443 15.2543 27.79 
27432 323 4 25.4012 15.2684 27.7878 
27271 315 4 24.9018 15.2285 26.657 
27366 320 4 24.9121 15.2513 26.6707 
27281 315 4 25.4066 15.2398 27.7888 
27279 315 4 24.3133 16.3077 26.4986 
27430 323 4 24.2637 16.3369 26.5368 
27431 323 4 24.8192 16 27.343 
27376 320 4 24.3362 16.3392 26.527 
27375 320 4 24.8822 15.9964 27.337 
27193 311 4 24.1016 13.1713 27.9236 
27098 306 4 24.1047 13.1459 27.9369 
27105 306 4 24.6712 12.4994 28.448 
27200 311 4 24.6601 12.5142 28.43 
27142 308 4 24.6854 12.4975 28.4134 
27106 306 4 24.5427 13.3052 29.0853 
27201 311 4 24.5563 13.3242 29.0664 
27143 308 4 24.5742 13.3133 29.0411 
27136 308 4 24.0588 13.5486 28.217 
27194 311 4 23.8621 14.0489 28.3391 
27099 306 4 23.8416 14.0169 28.3519 
27137 308 4 23.5852 14.4273 28.1573 
27107 306 4 24.145 14.2415 29.2779 
27202 311 4 24.181 14.2693 29.2609 
27144 308 4 24.1867 14.2552 29.2271 
27203 311 4 23.6348 15.0963 28.9615 
27145 308 4 23.6269 15.0708 28.9216 
27108 306 4 23.5847 15.0574 28.9743 
27109 306 4 23.0119 15.5343 28.2558 
27204 311 4 23.064 15.5835 28.2482 
27146 308 4 23.0447 15.5416 28.2066 
27587 331 4 22.7546 13.7842 32.5407 
27512 327 4 23.7035 14.1907 32.7027 
27588 331 4 23.7177 14.126 32.7069 
27501 327 4 23.0995 14.9014 33.0636 
27577 331 4 23.1224 14.8495 33.0566 
27511 327 4 22.7448 13.8529 32.5059 
27513 327 4 24.3385 14.9094 33.0928 
27589 331 4 24.3618 14.8554 33.0605 
27580 331 4 23.3236 17.2241 1.67417 
27504 327 4 23.2717 17.2377 1.76179 
27732 339 4 26.7764 17.9149 3.97679 
27725 339 4 27.6239 17.6547 3.5139 
27731 339 4 26.5118 17.1316 3.35374 
27733 339 4 27.4952 18.5589 4.35177 
27250 314 4 22.461 22.0514 16.0437 
27543 329 4 23.0892 21.2858 16.3022 
27544 329 4 23.6994 21.9664 15.8159 
27257 314 4 23.0919 21.3365 16.3453 
27256 314 4 23.681 22.0134 15.8289 
27536 329 4 22.783 22.3646 15.7744 
27528 328 4 22.4861 20.193 19.0211 
27519 328 4 22.4615 20.3736 20.247 
27529 328 4 22.7148 19.5265 19.7796 
27520 328 4 22.4741 20.4165 21.246 
27531 328 4 22.74 19.6123 21.7777 
27530 328 4 22.8077 19.314 20.7886 
27532 328 4 22.5298 20.3416 22.4818 
27778 341 4 25.532 18.1848 25.4886 
27777 341 4 26.3882 17.9061 24.9776 
27767 341 4 26.2806 18.6412 25.9696 
27766 341 4 27.2227 18.5222 25.6559 
27776 341 4 27.4162 17.9467 24.8612 
27779 341 4 25.077 18.7081 26.2574 
27768 341 4 25.1451 19.3358 27.0779 
27769 341 4 25.718 19.8996 27.7303 
27762 341 4 26.0872 19.2167 26.7642 
27761 341 4 27.0292 19.0976 26.4505 
27763 341 4 26.8358 19.6731 27.2452 
27764 341 4 27.7779 19.5541 26.9315 
27771 341 4 27.6703 20.2892 27.9235 
27770 341 4 26.6423 20.2486 28.0398 
27266 314 4 23.3464 23.7371 14.8711 
27546 329 4 23.4145 23.7281 14.9128 
27265 314 4 22.5123 24.3219 14.6863 
27547 329 4 22.5958 24.3372 14.738 
27545 329 4 23.8185 22.8603 15.3073 
27249 314 4 22.8021 22.8292 15.5158 
27537 329 4 22.6405 23.2454 15.3228 
27255 314 4 23.7742 22.8921 15.2894 
27351 319 4 23.738 33.116 29.7265 
27350 319 4 24.5738 32.7787 30.2359 
27361 319 4 25.41 32.9728 30.8146 
27461 325 4 27.9179 4.83659 5.865 
27064 304 4 27.9062 4.7995 5.84539 
27469 325 4 28.4298 5.96527 5.85943 
27470 325 4 28.0663 5.41396 5.06207 
27075 304 4 28.0565 5.35128 5.02501 
27076 304 4 28.43 5.92199 5.80395 
27060 304 4 28.039 4.59411 7.56017 
27059 304 4 28.1893 5.14589 6.73979 
27459 325 4 28.0445 4.58196 7.57362 
27460 325 4 28.193 5.15933 6.77069 
27468 325 4 28.6164 6.05944 6.87344 
27065 304 4 28.6228 6.04407 6.8138 
27467 325 4 28.5761 5.67125 7.83238 
27066 304 4 28.5833 5.68482 7.78399 
27068 304 4 27.9092 4.01055 8.64582 
27465 325 4 27.9157 3.9652 8.64088 
27067 304 4 28.3221 4.9405 8.45456 
27466 325 4 28.3196 4.9047 8.47931 
27399 321 4 31.1821 0.776181 17.7868 
27323 317 4 31.1769 0.780302 17.7378 
27302 316 4 33.0403 2.70589 18.7867 
27226 312 4 33.0758 2.75988 18.8237 
27303 316 4 32.4959 3.49258 19.1825 
27227 312 4 32.5408 3.5552 19.2149 
27228 312 4 32.4901 4.55075 19.4946 
27304 316 4 32.4347 4.48496 19.4712 
27217 312 4 32.9375 5.47977 19.5878 
27293 316 4 32.873 5.41712 19.5754 
27656 335 4 31.0978 1.46531 23.6916 
27163 309 4 31.0549 1.51373 23.6996 
27162 309 4 30.196 1.01857 23.4013 
27657 335 4 30.2253 0.985043 23.4088 
27650 335 4 29.7403 0.795509 24.5335 
27155 309 4 30.147 1.04296 24.3998 
27649 335 4 30.6231 1.26508 24.5488 
27156 309 4 30.8777 1.47832 24.9258 
27648 335 4 31.0312 1.53443 25.4211 
27647 335 4 30.1484 1.06486 25.4059 
27153 309 4 30.0981 1.06736 25.3984 
27157 309 4 30.8288 1.50271 25.9243 
27655 335 4 31.7159 1.83827 24.4338 
27164 309 4 31.6574 1.88928 24.4532 
27654 335 4 31.914 2.004 25.4363 
27165 309 4 31.8421 2.0446 25.46 
27652 335 4 29.6737 0.864628 26.263 
27663 335 4 30.0714 1.14467 27.4029 
27168 309 4 30.0002 1.11614 27.3955 
27158 309 4 30.0491 1.09175 26.3969 
27653 335 4 30.5565 1.3342 26.2782 
27167 309 4 30.8853 1.59823 27.1587 
27664 335 4 30.9646 1.60355 27.1506 
27166 309 4 31.5595 1.93807 26.4503 
27665 335 4 31.639 1.91809 26.4308 
27604 332 4 28.8338 9.22177 2.53603 
27673 336 4 28.5081 7.44653 3.62028 
27008 301 4 28.525 7.44142 3.61671 
27674 336 4 29.2316 7.30993 4.34817 
27447 324 4 28.8711 9.25934 2.56772 
27605 332 4 27.9348 9.69109 2.74463 
27594 332 4 29.3421 9.27569 3.66506 
27440 324 4 28.9131 9.48132 3.54191 
27595 332 4 28.4307 9.68402 3.61303 
27446 324 4 27.9635 9.71054 2.77912 
27448 324 4 29.8011 8.9271 2.87838 
27603 332 4 29.7576 8.87442 2.84869 
27441 324 4 29.7298 9.25307 4.07199 
27449 324 4 30.5045 8.80284 3.62787 
27602 332 4 30.4588 8.74211 3.59884 
27439 324 4 28.1384 9.93155 3.98602 
27002 301 4 28.1379 7.84812 4.4443 
27009 301 4 29.2396 7.28828 4.34997 
27003 301 4 28.6532 7.82447 5.30108 
27668 336 4 28.649 7.85176 5.29844 
27667 336 4 28.1251 7.85942 4.44664 
27010 301 4 29.5554 7.39413 5.33026 
27675 336 4 29.5559 7.43121 5.32386 
27669 336 4 28.2659 8.26465 6.1248 
27590 332 4 28.9266 9.67695 4.48142 
27438 324 4 28.9551 9.7033 4.5161 
27592 332 4 29.4225 9.66989 5.34981 
27004 301 4 28.2662 8.23117 6.12867 
27442 324 4 29.7718 9.47505 5.04618 
27593 332 4 29.838 9.26862 4.53345 
27600 332 4 30.5517 9.19729 5.54423 
27450 324 4 30.7927 8.91986 4.61536 
27601 332 4 30.7494 8.86029 4.58548 
27451 324 4 30.5885 9.2468 5.57626 
27597 332 4 28.0957 10.4795 6.11415 
27444 324 4 28.1804 10.1535 4.96021 
27443 324 4 28.9971 9.92528 5.49029 
27454 324 4 28.1091 10.4795 6.15382 