ITEM: TIMESTEP
0
ITEM: NUMBER OF ATOMS
950
ITEM: BOX BOUNDS pp pp pp
0.0000000000000000e+00 3.4000000000000000e+01
0.0000000000000000e+00 3.4000000000000000e+01
0.0000000000000000e+00 3.4000000000000000e+01
ITEM: ATOMS id mol type x y z 
27187 310 4 4 3.26795 6.6 
27188 310 4 5 3 6.6 
27186 310 4 3.26795 4 6.6 
27177 310 4 4.5 4.13398 6.6 
27178 310 4 5.5 4.13398 6.6 
27185 310 4 3 5 6.6 
27176 310 4 4 5 6.6 
27172 310 4 5 5 6.6 
27282 315 4 4 3.26795 8.8 
27283 315 4 5 3 8.8 
27281 315 4 3.26795 4 8.8 
27272 315 4 4.5 4.13398 8.8 
27273 315 4 5.5 4.13398 8.8 
27280 315 4 3 5 8.8 
27271 315 4 4 5 8.8 
27267 315 4 5 5 8.8 
27377 320 4 4 3.26795 11 
27378 320 4 5 3 11 
27376 320 4 3.26795 4 11 
27367 320 4 4.5 4.13398 11 
27368 320 4 5.5 4.13398 11 
27375 320 4 3 5 11 
27366 320 4 4 5 11 
27362 320 4 5 5 11 
27434 323 4 4 3.26795 13.2 
27435 323 4 5 3 13.2 
27433 323 4 3.26795 4 13.2 
27424 323 4 4.5 4.13398 13.2 
27425 323 4 5.5 4.13398 13.2 
27432 323 4 3 5 13.2 
27423 323 4 4 5 13.2 
27419 323 4 5 5 13.2 
27700 337 4 4 3.26795 22 
27701 337 4 5 3 22 
27699 337 4 3.26795 4 22 
27690 337 4 4.5 4.13398 22 
27691 337 4 5.5 4.13398 22 
27698 337 4 3 5 22 
27689 337 4 4 5 22 
27685 337 4 5 5 22 
27184 310 4 3.26795 6 6.6 
27175 310 4 4.5 5.86602 6.6 
27174 310 4 5.5 5.86602 6.6 
27183 310 4 4 6.73205 6.6 
27182 310 4 5 7 6.6 
27279 315 4 3.26795 6 8.8 
27270 315 4 4.5 5.86602 8.8 
27269 315 4 5.5 5.86602 8.8 
27278 315 4 4 6.73205 8.8 
27277 315 4 5 7 8.8 
27374 320 4 3.26795 6 11 
27365 320 4 4.5 5.86602 11 
27364 320 4 5.5 5.86602 11 
27373 320 4 4 6.73205 11 
27372 320 4 5 7 11 
27431 323 4 3.26795 6 13.2 
27422 323 4 4.5 5.86602 13.2 
27421 323 4 5.5 5.86602 13.2 
27430 323 4 4 6.73205 13.2 
27429 323 4 5 7 13.2 
27697 337 4 3.26795 6 22 
27688 337 4 4.5 5.86602 22 
27687 337 4 5.5 5.86602 22 
27696 337 4 4 6.73205 22 
27695 337 4 5 7 22 
27017 301 4 5 13 1.1 
27015 301 4 3.26795 14 1.1 
27006 301 4 4.5 14.134 1.1 
27016 301 4 4 13.2679 1.1 
27007 301 4 5.5 14.134 1.1 
27014 301 4 3 15 1.1 
27005 301 4 4 15 1.1 
27001 301 4 5 15 1.1 
27013 301 4 3.26795 16 1.1 
27004 301 4 4.5 15.866 1.1 
27003 301 4 5.5 15.866 1.1 
27012 301 4 4 16.7321 1.1 
27093 305 4 5 13 4.4 
27091 305 4 3.26795 14 4.4 
27082 305 4 4.5 14.134 4.4 
27092 305 4 4 13.2679 4.4 
27083 305 4 5.5 14.134 4.4 
27090 305 4 3 15 4.4 
27081 305 4 4 15 4.4 
27077 305 4 5 15 4.4 
27089 305 4 3.26795 16 4.4 
27080 305 4 4.5 15.866 4.4 
27079 305 4 5.5 15.866 4.4 
27088 305 4 4 16.7321 4.4 
27131 307 4 5 13 5.5 
27129 307 4 3.26795 14 5.5 
27120 307 4 4.5 14.134 5.5 
27130 307 4 4 13.2679 5.5 
27121 307 4 5.5 14.134 5.5 
27128 307 4 3 15 5.5 
27119 307 4 4 15 5.5 
27115 307 4 5 15 5.5 
27127 307 4 3.26795 16 5.5 
27118 307 4 4.5 15.866 5.5 
27117 307 4 5.5 15.866 5.5 
27126 307 4 4 16.7321 5.5 
27321 317 4 5 13 9.9 
27319 317 4 3.26795 14 9.9 
27310 317 4 4.5 14.134 9.9 
27320 317 4 4 13.2679 9.9 
27311 317 4 5.5 14.134 9.9 
27318 317 4 3 15 9.9 
27309 317 4 4 15 9.9 
27305 317 4 5 15 9.9 
27317 317 4 3.26795 16 9.9 
27308 317 4 4.5 15.866 9.9 
27307 317 4 5.5 15.866 9.9 
27316 317 4 4 16.7321 9.9 
27397 321 4 5 13 11 
27395 321 4 3.26795 14 11 
27386 321 4 4.5 14.134 11 
27396 321 4 4 13.2679 11 
27387 321 4 5.5 14.134 11 
27394 321 4 3 15 11 
27385 321 4 4 15 11 
27381 321 4 5 15 11 
27393 321 4 3.26795 16 11 
27384 321 4 4.5 15.866 11 
27383 321 4 5.5 15.866 11 
27392 321 4 4 16.7321 11 
27530 328 4 5 13 16.5 
27528 328 4 3.26795 14 16.5 
27519 328 4 4.5 14.134 16.5 
27529 328 4 4 13.2679 16.5 
27520 328 4 5.5 14.134 16.5 
27527 328 4 3 15 16.5 
27518 328 4 4 15 16.5 
27514 328 4 5 15 16.5 
27526 328 4 3.26795 16 16.5 
27517 328 4 4.5 15.866 16.5 
27516 328 4 5.5 15.866 16.5 
27525 328 4 4 16.7321 16.5 
27644 334 4 5 13 19.8 
27642 334 4 3.26795 14 19.8 
27633 334 4 4.5 14.134 19.8 
27643 334 4 4 13.2679 19.8 
27634 334 4 5.5 14.134 19.8 
27641 334 4 3 15 19.8 
27632 334 4 4 15 19.8 
27628 334 4 5 15 19.8 
27640 334 4 3.26795 16 19.8 
27631 334 4 4.5 15.866 19.8 
27630 334 4 5.5 15.866 19.8 
27639 334 4 4 16.7321 19.8 
27720 338 4 5 13 23.1 
27718 338 4 3.26795 14 23.1 
27709 338 4 4.5 14.134 23.1 
27719 338 4 4 13.2679 23.1 
27710 338 4 5.5 14.134 23.1 
27717 338 4 3 15 23.1 
27708 338 4 4 15 23.1 
27704 338 4 5 15 23.1 
27716 338 4 3.26795 16 23.1 
27707 338 4 4.5 15.866 23.1 
27706 338 4 5.5 15.866 23.1 
27715 338 4 4 16.7321 23.1 
27011 301 4 5 17 1.1 
27087 305 4 5 17 4.4 
27125 307 4 5 17 5.5 
27315 317 4 5 17 9.9 
27391 321 4 5 17 11 
27524 328 4 5 17 16.5 
27638 334 4 5 17 19.8 
27714 338 4 5 17 23.1 
27035 302 4 4 23.2679 1.1 
27036 302 4 5 23 1.1 
27034 302 4 3.26795 24 1.1 
27025 302 4 4.5 24.134 1.1 
27026 302 4 5.5 24.134 1.1 
27033 302 4 3 25 1.1 
27024 302 4 4 25 1.1 
27020 302 4 5 25 1.1 
27032 302 4 3.26795 26 1.1 
27023 302 4 4.5 25.866 1.1 
27022 302 4 5.5 25.866 1.1 
27031 302 4 4 26.7321 1.1 
27030 302 4 5 27 1.1 
27111 306 4 4 23.2679 4.4 
27112 306 4 5 23 4.4 
27110 306 4 3.26795 24 4.4 
27101 306 4 4.5 24.134 4.4 
27102 306 4 5.5 24.134 4.4 
27109 306 4 3 25 4.4 
27100 306 4 4 25 4.4 
27096 306 4 5 25 4.4 
27108 306 4 3.26795 26 4.4 
27099 306 4 4.5 25.866 4.4 
27098 306 4 5.5 25.866 4.4 
27107 306 4 4 26.7321 4.4 
27106 306 4 5 27 4.4 
27149 308 4 4 23.2679 5.5 
27150 308 4 5 23 5.5 
27148 308 4 3.26795 24 5.5 
27139 308 4 4.5 24.134 5.5 
27140 308 4 5.5 24.134 5.5 
27147 308 4 3 25 5.5 
27138 308 4 4 25 5.5 
27134 308 4 5 25 5.5 
27146 308 4 3.26795 26 5.5 
27137 308 4 4.5 25.866 5.5 
27136 308 4 5.5 25.866 5.5 
27145 308 4 4 26.7321 5.5 
27144 308 4 5 27 5.5 
27206 311 4 4 23.2679 6.6 
27207 311 4 5 23 6.6 
27205 311 4 3.26795 24 6.6 
27196 311 4 4.5 24.134 6.6 
27197 311 4 5.5 24.134 6.6 
27204 311 4 3 25 6.6 
27195 311 4 4 25 6.6 
27191 311 4 5 25 6.6 
27203 311 4 3.26795 26 6.6 
27194 311 4 4.5 25.866 6.6 
27193 311 4 5.5 25.866 6.6 
27202 311 4 4 26.7321 6.6 
27201 311 4 5 27 6.6 
27453 324 4 4 23.2679 13.2 
27454 324 4 5 23 13.2 
27452 324 4 3.26795 24 13.2 
27443 324 4 4.5 24.134 13.2 
27444 324 4 5.5 24.134 13.2 
27451 324 4 3 25 13.2 
27442 324 4 4 25 13.2 
27438 324 4 5 25 13.2 
27450 324 4 3.26795 26 13.2 
27441 324 4 4.5 25.866 13.2 
27440 324 4 5.5 25.866 13.2 
27449 324 4 4 26.7321 13.2 
27448 324 4 5 27 13.2 
27605 332 4 4 23.2679 17.6 
27606 332 4 5 23 17.6 
27604 332 4 3.26795 24 17.6 
27595 332 4 4.5 24.134 17.6 
27596 332 4 5.5 24.134 17.6 
27603 332 4 3 25 17.6 
27594 332 4 4 25 17.6 
27590 332 4 5 25 17.6 
27602 332 4 3.26795 26 17.6 
27593 332 4 4.5 25.866 17.6 
27592 332 4 5.5 25.866 17.6 
27601 332 4 4 26.7321 17.6 
27600 332 4 5 27 17.6 
27681 336 4 4 23.2679 20.9 
27682 336 4 5 23 20.9 
27680 336 4 3.26795 24 20.9 
27671 336 4 4.5 24.134 20.9 
27672 336 4 5.5 24.134 20.9 
27679 336 4 3 25 20.9 
27670 336 4 4 25 20.9 
27666 336 4 5 25 20.9 
27678 336 4 3.26795 26 20.9 
27669 336 4 4.5 25.866 20.9 
27668 336 4 5.5 25.866 20.9 
27677 336 4 4 26.7321 20.9 
27676 336 4 5 27 20.9 
27852 345 4 4 23.2679 28.6 
27853 345 4 5 23 28.6 
27851 345 4 3.26795 24 28.6 
27842 345 4 4.5 24.134 28.6 
27843 345 4 5.5 24.134 28.6 
27850 345 4 3 25 28.6 
27841 345 4 4 25 28.6 
27837 345 4 5 25 28.6 
27849 345 4 3.26795 26 28.6 
27840 345 4 4.5 25.866 28.6 
27839 345 4 5.5 25.866 28.6 
27848 345 4 4 26.7321 28.6 
27847 345 4 5 27 28.6 
27928 349 4 4 23.2679 31.9 
27929 349 4 5 23 31.9 
27927 349 4 3.26795 24 31.9 
27918 349 4 4.5 24.134 31.9 
27919 349 4 5.5 24.134 31.9 
27926 349 4 3 25 31.9 
27917 349 4 4 25 31.9 
27913 349 4 5 25 31.9 
27925 349 4 3.26795 26 31.9 
27916 349 4 4.5 25.866 31.9 
27915 349 4 5.5 25.866 31.9 
27924 349 4 4 26.7321 31.9 
27923 349 4 5 27 31.9 
27189 310 4 6 3.26795 6.6 
27190 310 4 6.73205 4 6.6 
27173 310 4 6 5 6.6 
27179 310 4 7 5 6.6 
27284 315 4 6 3.26795 8.8 
27285 315 4 6.73205 4 8.8 
27268 315 4 6 5 8.8 
27274 315 4 7 5 8.8 
27379 320 4 6 3.26795 11 
27380 320 4 6.73205 4 11 
27363 320 4 6 5 11 
27369 320 4 7 5 11 
27436 323 4 6 3.26795 13.2 
27437 323 4 6.73205 4 13.2 
27420 323 4 6 5 13.2 
27426 323 4 7 5 13.2 
27702 337 4 6 3.26795 22 
27703 337 4 6.73205 4 22 
27686 337 4 6 5 22 
27692 337 4 7 5 22 
27180 310 4 6.73205 6 6.6 
27181 310 4 6 6.73205 6.6 
27275 315 4 6.73205 6 8.8 
27276 315 4 6 6.73205 8.8 
27370 320 4 6.73205 6 11 
27371 320 4 6 6.73205 11 
27427 323 4 6.73205 6 13.2 
27428 323 4 6 6.73205 13.2 
27693 337 4 6.73205 6 22 
27694 337 4 6 6.73205 22 
27018 301 4 6 13.2679 1.1 
27019 301 4 6.73205 14 1.1 
27002 301 4 6 15 1.1 
27008 301 4 7 15 1.1 
27009 301 4 6.73205 16 1.1 
27010 301 4 6 16.7321 1.1 
27094 305 4 6 13.2679 4.4 
27095 305 4 6.73205 14 4.4 
27078 305 4 6 15 4.4 
27084 305 4 7 15 4.4 
27085 305 4 6.73205 16 4.4 
27086 305 4 6 16.7321 4.4 
27132 307 4 6 13.2679 5.5 
27133 307 4 6.73205 14 5.5 
27116 307 4 6 15 5.5 
27122 307 4 7 15 5.5 
27123 307 4 6.73205 16 5.5 
27124 307 4 6 16.7321 5.5 
27322 317 4 6 13.2679 9.9 
27323 317 4 6.73205 14 9.9 
27306 317 4 6 15 9.9 
27312 317 4 7 15 9.9 
27313 317 4 6.73205 16 9.9 
27314 317 4 6 16.7321 9.9 
27398 321 4 6 13.2679 11 
27399 321 4 6.73205 14 11 
27382 321 4 6 15 11 
27388 321 4 7 15 11 
27389 321 4 6.73205 16 11 
27390 321 4 6 16.7321 11 
27531 328 4 6 13.2679 16.5 
27532 328 4 6.73205 14 16.5 
27515 328 4 6 15 16.5 
27521 328 4 7 15 16.5 
27522 328 4 6.73205 16 16.5 
27523 328 4 6 16.7321 16.5 
27645 334 4 6 13.2679 19.8 
27646 334 4 6.73205 14 19.8 
27629 334 4 6 15 19.8 
27635 334 4 7 15 19.8 
27636 334 4 6.73205 16 19.8 
27637 334 4 6 16.7321 19.8 
27721 338 4 6 13.2679 23.1 
27722 338 4 6.73205 14 23.1 
27705 338 4 6 15 23.1 
27711 338 4 7 15 23.1 
27712 338 4 6.73205 16 23.1 
27713 338 4 6 16.7321 23.1 
27037 302 4 6 23.2679 1.1 
27038 302 4 6.73205 24 1.1 
27021 302 4 6 25 1.1 
27027 302 4 7 25 1.1 
27028 302 4 6.73205 26 1.1 
27029 302 4 6 26.7321 1.1 
27113 306 4 6 23.2679 4.4 
27114 306 4 6.73205 24 4.4 
27097 306 4 6 25 4.4 
27103 306 4 7 25 4.4 
27104 306 4 6.73205 26 4.4 
27105 306 4 6 26.7321 4.4 
27151 308 4 6 23.2679 5.5 
27152 308 4 6.73205 24 5.5 
27135 308 4 6 25 5.5 
27141 308 4 7 25 5.5 
27142 308 4 6.73205 26 5.5 
27143 308 4 6 26.7321 5.5 
27208 311 4 6 23.2679 6.6 
27209 311 4 6.73205 24 6.6 
27192 311 4 6 25 6.6 
27198 311 4 7 25 6.6 
27199 311 4 6.73205 26 6.6 
27200 311 4 6 26.7321 6.6 
27455 324 4 6 23.2679 13.2 
27456 324 4 6.73205 24 13.2 
27439 324 4 6 25 13.2 
27445 324 4 7 25 13.2 
27446 324 4 6.73205 26 13.2 
27447 324 4 6 26.7321 13.2 
27607 332 4 6 23.2679 17.6 
27608 332 4 6.73205 24 17.6 
27591 332 4 6 25 17.6 
27597 332 4 7 25 17.6 
27598 332 4 6.73205 26 17.6 
27599 332 4 6 26.7321 17.6 
27683 336 4 6 23.2679 20.9 
27684 336 4 6.73205 24 20.9 
27667 336 4 6 25 20.9 
27673 336 4 7 25 20.9 
27674 336 4 6.73205 26 20.9 
27675 336 4 6 26.7321 20.9 
27854 345 4 6 23.2679 28.6 
27855 345 4 6.73205 24 28.6 
27838 345 4 6 25 28.6 
27844 345 4 7 25 28.6 
27845 345 4 6.73205 26 28.6 
27846 345 4 6 26.7321 28.6 
27930 349 4 6 23.2679 31.9 
27931 349 4 6.73205 24 31.9 
27914 349 4 6 25 31.9 
27920 349 4 7 25 31.9 
27921 349 4 6.73205 26 31.9 
27922 349 4 6 26.7321 31.9 
27225 312 4 14 3.26795 7.7 
27226 312 4 15 3 7.7 
27227 312 4 16 3.26795 7.7 
27224 312 4 13.2679 4 7.7 
27215 312 4 14.5 4.13398 7.7 
27216 312 4 15.5 4.13398 7.7 
27228 312 4 16.7321 4 7.7 
27223 312 4 13 5 7.7 
27214 312 4 14 5 7.7 
27210 312 4 15 5 7.7 
27211 312 4 16 5 7.7 
27301 316 4 14 3.26795 8.8 
27302 316 4 15 3 8.8 
27303 316 4 16 3.26795 8.8 
27300 316 4 13.2679 4 8.8 
27291 316 4 14.5 4.13398 8.8 
27292 316 4 15.5 4.13398 8.8 
27304 316 4 16.7321 4 8.8 
27299 316 4 13 5 8.8 
27290 316 4 14 5 8.8 
27286 316 4 15 5 8.8 
27287 316 4 16 5 8.8 
27510 327 4 14 3.26795 16.5 
27511 327 4 15 3 16.5 
27512 327 4 16 3.26795 16.5 
27509 327 4 13.2679 4 16.5 
27500 327 4 14.5 4.13398 16.5 
27501 327 4 15.5 4.13398 16.5 
27513 327 4 16.7321 4 16.5 
27508 327 4 13 5 16.5 
27499 327 4 14 5 16.5 
27495 327 4 15 5 16.5 
27496 327 4 16 5 16.5 
27586 331 4 14 3.26795 17.6 
27587 331 4 15 3 17.6 
27588 331 4 16 3.26795 17.6 
27585 331 4 13.2679 4 17.6 
27576 331 4 14.5 4.13398 17.6 
27577 331 4 15.5 4.13398 17.6 
27589 331 4 16.7321 4 17.6 
27584 331 4 13 5 17.6 
27575 331 4 14 5 17.6 
27571 331 4 15 5 17.6 
27572 331 4 16 5 17.6 
27776 341 4 14 3.26795 26.4 
27777 341 4 15 3 26.4 
27778 341 4 16 3.26795 26.4 
27775 341 4 13.2679 4 26.4 
27766 341 4 14.5 4.13398 26.4 
27767 341 4 15.5 4.13398 26.4 
27779 341 4 16.7321 4 26.4 
27774 341 4 13 5 26.4 
27765 341 4 14 5 26.4 
27761 341 4 15 5 26.4 
27762 341 4 16 5 26.4 
27871 346 4 14 3.26795 29.7 
27872 346 4 15 3 29.7 
27873 346 4 16 3.26795 29.7 
27870 346 4 13.2679 4 29.7 
27861 346 4 14.5 4.13398 29.7 
27862 346 4 15.5 4.13398 29.7 
27874 346 4 16.7321 4 29.7 
27869 346 4 13 5 29.7 
27860 346 4 14 5 29.7 
27856 346 4 15 5 29.7 
27857 346 4 16 5 29.7 
27222 312 4 13.2679 6 7.7 
27213 312 4 14.5 5.86602 7.7 
27212 312 4 15.5 5.86602 7.7 
27218 312 4 16.7321 6 7.7 
27221 312 4 14 6.73205 7.7 
27220 312 4 15 7 7.7 
27219 312 4 16 6.73205 7.7 
27298 316 4 13.2679 6 8.8 
27289 316 4 14.5 5.86602 8.8 
27288 316 4 15.5 5.86602 8.8 
27294 316 4 16.7321 6 8.8 
27297 316 4 14 6.73205 8.8 
27296 316 4 15 7 8.8 
27295 316 4 16 6.73205 8.8 
27507 327 4 13.2679 6 16.5 
27498 327 4 14.5 5.86602 16.5 
27497 327 4 15.5 5.86602 16.5 
27503 327 4 16.7321 6 16.5 
27506 327 4 14 6.73205 16.5 
27505 327 4 15 7 16.5 
27504 327 4 16 6.73205 16.5 
27583 331 4 13.2679 6 17.6 
27574 331 4 14.5 5.86602 17.6 
27573 331 4 15.5 5.86602 17.6 
27579 331 4 16.7321 6 17.6 
27582 331 4 14 6.73205 17.6 
27581 331 4 15 7 17.6 
27580 331 4 16 6.73205 17.6 
27773 341 4 13.2679 6 26.4 
27764 341 4 14.5 5.86602 26.4 
27763 341 4 15.5 5.86602 26.4 
27769 341 4 16.7321 6 26.4 
27772 341 4 14 6.73205 26.4 
27771 341 4 15 7 26.4 
27770 341 4 16 6.73205 26.4 
27868 346 4 13.2679 6 29.7 
27859 346 4 14.5 5.86602 29.7 
27858 346 4 15.5 5.86602 29.7 
27864 346 4 16.7321 6 29.7 
27867 346 4 14 6.73205 29.7 
27866 346 4 15 7 29.7 
27865 346 4 16 6.73205 29.7 
27264 314 4 15 13 7.7 
27262 314 4 13.2679 14 7.7 
27263 314 4 14 13.2679 7.7 
27253 314 4 14.5 14.134 7.7 
27254 314 4 15.5 14.134 7.7 
27265 314 4 16 13.2679 7.7 
27266 314 4 16.7321 14 7.7 
27261 314 4 13 15 7.7 
27252 314 4 14 15 7.7 
27248 314 4 15 15 7.7 
27249 314 4 16 15 7.7 
27260 314 4 13.2679 16 7.7 
27251 314 4 14.5 15.866 7.7 
27250 314 4 15.5 15.866 7.7 
27256 314 4 16.7321 16 7.7 
27259 314 4 14 16.7321 7.7 
27257 314 4 16 16.7321 7.7 
27549 329 4 15 13 16.5 
27547 329 4 13.2679 14 16.5 
27548 329 4 14 13.2679 16.5 
27538 329 4 14.5 14.134 16.5 
27539 329 4 15.5 14.134 16.5 
27550 329 4 16 13.2679 16.5 
27551 329 4 16.7321 14 16.5 
27546 329 4 13 15 16.5 
27537 329 4 14 15 16.5 
27533 329 4 15 15 16.5 
27534 329 4 16 15 16.5 
27545 329 4 13.2679 16 16.5 
27536 329 4 14.5 15.866 16.5 
27535 329 4 15.5 15.866 16.5 
27541 329 4 16.7321 16 16.5 
27544 329 4 14 16.7321 16.5 
27542 329 4 16 16.7321 16.5 
27910 348 4 15 13 29.7 
27908 348 4 13.2679 14 29.7 
27909 348 4 14 13.2679 29.7 
27899 348 4 14.5 14.134 29.7 
27900 348 4 15.5 14.134 29.7 
27911 348 4 16 13.2679 29.7 
27912 348 4 16.7321 14 29.7 
27907 348 4 13 15 29.7 
27898 348 4 14 15 29.7 
27894 348 4 15 15 29.7 
27895 348 4 16 15 29.7 
27906 348 4 13.2679 16 29.7 
27897 348 4 14.5 15.866 29.7 
27896 348 4 15.5 15.866 29.7 
27902 348 4 16.7321 16 29.7 
27905 348 4 14 16.7321 29.7 
27903 348 4 16 16.7321 29.7 
27258 314 4 15 17 7.7 
27543 329 4 15 17 16.5 
27904 348 4 15 17 29.7 
27073 304 4 14 23.2679 3.3 
27074 304 4 15 23 3.3 
27075 304 4 16 23.2679 3.3 
27072 304 4 13.2679 24 3.3 
27063 304 4 14.5 24.134 3.3 
27064 304 4 15.5 24.134 3.3 
27076 304 4 16.7321 24 3.3 
27071 304 4 13 25 3.3 
27062 304 4 14 25 3.3 
27058 304 4 15 25 3.3 
27059 304 4 16 25 3.3 
27070 304 4 13.2679 26 3.3 
27061 304 4 14.5 25.866 3.3 
27060 304 4 15.5 25.866 3.3 
27066 304 4 16.7321 26 3.3 
27069 304 4 14 26.7321 3.3 
27068 304 4 15 27 3.3 
27067 304 4 16 26.7321 3.3 
27339 318 4 14 23.2679 9.9 
27340 318 4 15 23 9.9 
27341 318 4 16 23.2679 9.9 
27338 318 4 13.2679 24 9.9 
27329 318 4 14.5 24.134 9.9 
27330 318 4 15.5 24.134 9.9 
27342 318 4 16.7321 24 9.9 
27337 318 4 13 25 9.9 
27328 318 4 14 25 9.9 
27324 318 4 15 25 9.9 
27325 318 4 16 25 9.9 
27336 318 4 13.2679 26 9.9 
27327 318 4 14.5 25.866 9.9 
27326 318 4 15.5 25.866 9.9 
27332 318 4 16.7321 26 9.9 
27335 318 4 14 26.7321 9.9 
27334 318 4 15 27 9.9 
27333 318 4 16 26.7321 9.9 
27624 333 4 14 23.2679 18.7 
27625 333 4 15 23 18.7 
27626 333 4 16 23.2679 18.7 
27623 333 4 13.2679 24 18.7 
27614 333 4 14.5 24.134 18.7 
27615 333 4 15.5 24.134 18.7 
27627 333 4 16.7321 24 18.7 
27622 333 4 13 25 18.7 
27613 333 4 14 25 18.7 
27609 333 4 15 25 18.7 
27610 333 4 16 25 18.7 
27621 333 4 13.2679 26 18.7 
27612 333 4 14.5 25.866 18.7 
27611 333 4 15.5 25.866 18.7 
27617 333 4 16.7321 26 18.7 
27620 333 4 14 26.7321 18.7 
27619 333 4 15 27 18.7 
27618 333 4 16 26.7321 18.7 
27738 339 4 14 23.2679 23.1 
27739 339 4 15 23 23.1 
27740 339 4 16 23.2679 23.1 
27737 339 4 13.2679 24 23.1 
27728 339 4 14.5 24.134 23.1 
27729 339 4 15.5 24.134 23.1 
27741 339 4 16.7321 24 23.1 
27736 339 4 13 25 23.1 
27727 339 4 14 25 23.1 
27723 339 4 15 25 23.1 
27724 339 4 16 25 23.1 
27735 339 4 13.2679 26 23.1 
27726 339 4 14.5 25.866 23.1 
27725 339 4 15.5 25.866 23.1 
27731 339 4 16.7321 26 23.1 
27734 339 4 14 26.7321 23.1 
27733 339 4 15 27 23.1 
27732 339 4 16 26.7321 23.1 
27795 342 4 14 23.2679 26.4 
27796 342 4 15 23 26.4 
27797 342 4 16 23.2679 26.4 
27794 342 4 13.2679 24 26.4 
27785 342 4 14.5 24.134 26.4 
27786 342 4 15.5 24.134 26.4 
27798 342 4 16.7321 24 26.4 
27793 342 4 13 25 26.4 
27784 342 4 14 25 26.4 
27780 342 4 15 25 26.4 
27781 342 4 16 25 26.4 
27792 342 4 13.2679 26 26.4 
27783 342 4 14.5 25.866 26.4 
27782 342 4 15.5 25.866 26.4 
27788 342 4 16.7321 26 26.4 
27791 342 4 14 26.7321 26.4 
27790 342 4 15 27 26.4 
27789 342 4 16 26.7321 26.4 
27217 312 4 17 5 7.7 
27293 316 4 17 5 8.8 
27502 327 4 17 5 16.5 
27578 331 4 17 5 17.6 
27768 341 4 17 5 26.4 
27863 346 4 17 5 29.7 
27255 314 4 17 15 7.7 
27540 329 4 17 15 16.5 
27901 348 4 17 15 29.7 
27065 304 4 17 25 3.3 
27331 318 4 17 25 9.9 
27616 333 4 17 25 18.7 
27730 339 4 17 25 23.1 
27787 342 4 17 25 26.4 
27244 313 4 24 3.26795 7.7 
27245 313 4 25 3 7.7 
27246 313 4 26 3.26795 7.7 
27243 313 4 23.2679 4 7.7 
27234 313 4 24.5 4.13398 7.7 
27235 313 4 25.5 4.13398 7.7 
27247 313 4 26.7321 4 7.7 
27242 313 4 23 5 7.7 
27233 313 4 24 5 7.7 
27229 313 4 25 5 7.7 
27230 313 4 26 5 7.7 
27236 313 4 27 5 7.7 
27415 322 4 24 3.26795 12.1 
27416 322 4 25 3 12.1 
27417 322 4 26 3.26795 12.1 
27414 322 4 23.2679 4 12.1 
27405 322 4 24.5 4.13398 12.1 
27406 322 4 25.5 4.13398 12.1 
27418 322 4 26.7321 4 12.1 
27413 322 4 23 5 12.1 
27404 322 4 24 5 12.1 
27400 322 4 25 5 12.1 
27401 322 4 26 5 12.1 
27407 322 4 27 5 12.1 
27662 335 4 24 3.26795 20.9 
27663 335 4 25 3 20.9 
27664 335 4 26 3.26795 20.9 
27661 335 4 23.2679 4 20.9 
27652 335 4 24.5 4.13398 20.9 
27653 335 4 25.5 4.13398 20.9 
27665 335 4 26.7321 4 20.9 
27660 335 4 23 5 20.9 
27651 335 4 24 5 20.9 
27647 335 4 25 5 20.9 
27648 335 4 26 5 20.9 
27654 335 4 27 5 20.9 
27890 347 4 24 3.26795 29.7 
27891 347 4 25 3 29.7 
27892 347 4 26 3.26795 29.7 
27889 347 4 23.2679 4 29.7 
27880 347 4 24.5 4.13398 29.7 
27881 347 4 25.5 4.13398 29.7 
27893 347 4 26.7321 4 29.7 
27888 347 4 23 5 29.7 
27879 347 4 24 5 29.7 
27875 347 4 25 5 29.7 
27876 347 4 26 5 29.7 
27882 347 4 27 5 29.7 
27241 313 4 23.2679 6 7.7 
27232 313 4 24.5 5.86602 7.7 
27231 313 4 25.5 5.86602 7.7 
27237 313 4 26.7321 6 7.7 
27240 313 4 24 6.73205 7.7 
27239 313 4 25 7 7.7 
27238 313 4 26 6.73205 7.7 
27412 322 4 23.2679 6 12.1 
27403 322 4 24.5 5.86602 12.1 
27402 322 4 25.5 5.86602 12.1 
27408 322 4 26.7321 6 12.1 
27411 322 4 24 6.73205 12.1 
27410 322 4 25 7 12.1 
27409 322 4 26 6.73205 12.1 
27659 335 4 23.2679 6 20.9 
27650 335 4 24.5 5.86602 20.9 
27649 335 4 25.5 5.86602 20.9 
27655 335 4 26.7321 6 20.9 
27658 335 4 24 6.73205 20.9 
27657 335 4 25 7 20.9 
27656 335 4 26 6.73205 20.9 
27887 347 4 23.2679 6 29.7 
27878 347 4 24.5 5.86602 29.7 
27877 347 4 25.5 5.86602 29.7 
27883 347 4 26.7321 6 29.7 
27886 347 4 24 6.73205 29.7 
27885 347 4 25 7 29.7 
27884 347 4 26 6.73205 29.7 
27055 303 4 25 13 2.2 
27053 303 4 23.2679 14 2.2 
27044 303 4 24.5 14.134 2.2 
27054 303 4 24 13.2679 2.2 
27045 303 4 25.5 14.134 2.2 
27056 303 4 26 13.2679 2.2 
27057 303 4 26.7321 14 2.2 
27052 303 4 23 15 2.2 
27043 303 4 24 15 2.2 
27039 303 4 25 15 2.2 
27040 303 4 26 15 2.2 
27046 303 4 27 15 2.2 
27051 303 4 23.2679 16 2.2 
27042 303 4 24.5 15.866 2.2 
27041 303 4 25.5 15.866 2.2 
27047 303 4 26.7321 16 2.2 
27050 303 4 24 16.7321 2.2 
27048 303 4 26 16.7321 2.2 
27473 325 4 25 13 15.4 
27471 325 4 23.2679 14 15.4 
27462 325 4 24.5 14.134 15.4 
27472 325 4 24 13.2679 15.4 
27463 325 4 25.5 14.134 15.4 
27474 325 4 26 13.2679 15.4 
27475 325 4 26.7321 14 15.4 
27470 325 4 23 15 15.4 
27461 325 4 24 15 15.4 
27457 325 4 25 15 15.4 
27458 325 4 26 15 15.4 
27464 325 4 27 15 15.4 
27469 325 4 23.2679 16 15.4 
27460 325 4 24.5 15.866 15.4 
27459 325 4 25.5 15.866 15.4 
27465 325 4 26.7321 16 15.4 
27468 325 4 24 16.7321 15.4 
27466 325 4 26 16.7321 15.4 
27834 344 4 25 13 28.6 
27832 344 4 23.2679 14 28.6 
27823 344 4 24.5 14.134 28.6 
27833 344 4 24 13.2679 28.6 
27824 344 4 25.5 14.134 28.6 
27835 344 4 26 13.2679 28.6 
27836 344 4 26.7321 14 28.6 
27831 344 4 23 15 28.6 
27822 344 4 24 15 28.6 
27818 344 4 25 15 28.6 
27819 344 4 26 15 28.6 
27825 344 4 27 15 28.6 
27830 344 4 23.2679 16 28.6 
27821 344 4 24.5 15.866 28.6 
27820 344 4 25.5 15.866 28.6 
27826 344 4 26.7321 16 28.6 
27829 344 4 24 16.7321 28.6 
27827 344 4 26 16.7321 28.6 
27049 303 4 25 17 2.2 
27467 325 4 25 17 15.4 
27828 344 4 25 17 28.6 
27168 309 4 24 23.2679 5.5 
27169 309 4 25 23 5.5 
27170 309 4 26 23.2679 5.5 
27167 309 4 23.2679 24 5.5 
27158 309 4 24.5 24.134 5.5 
27159 309 4 25.5 24.134 5.5 
27171 309 4 26.7321 24 5.5 
27166 309 4 23 25 5.5 
27157 309 4 24 25 5.5 
27153 309 4 25 25 5.5 
27154 309 4 26 25 5.5 
27160 309 4 27 25 5.5 
27165 309 4 23.2679 26 5.5 
27156 309 4 24.5 25.866 5.5 
27155 309 4 25.5 25.866 5.5 
27161 309 4 26.7321 26 5.5 
27164 309 4 24 26.7321 5.5 
27163 309 4 25 27 5.5 
27162 309 4 26 26.7321 5.5 
27358 319 4 24 23.2679 9.9 
27359 319 4 25 23 9.9 
27360 319 4 26 23.2679 9.9 
27357 319 4 23.2679 24 9.9 
27348 319 4 24.5 24.134 9.9 
27349 319 4 25.5 24.134 9.9 
27361 319 4 26.7321 24 9.9 
27356 319 4 23 25 9.9 
27347 319 4 24 25 9.9 
27343 319 4 25 25 9.9 
27344 319 4 26 25 9.9 
27350 319 4 27 25 9.9 
27355 319 4 23.2679 26 9.9 
27346 319 4 24.5 25.866 9.9 
27345 319 4 25.5 25.866 9.9 
27351 319 4 26.7321 26 9.9 
27354 319 4 24 26.7321 9.9 
27353 319 4 25 27 9.9 
27352 319 4 26 26.7321 9.9 
27491 326 4 24 23.2679 15.4 
27492 326 4 25 23 15.4 
27493 326 4 26 23.2679 15.4 
27490 326 4 23.2679 24 15.4 
27481 326 4 24.5 24.134 15.4 
27482 326 4 25.5 24.134 15.4 
27494 326 4 26.7321 24 15.4 
27489 326 4 23 25 15.4 
27480 326 4 24 25 15.4 
27476 326 4 25 25 15.4 
27477 326 4 26 25 15.4 
27483 326 4 27 25 15.4 
27488 326 4 23.2679 26 15.4 
27479 326 4 24.5 25.866 15.4 
27478 326 4 25.5 25.866 15.4 
27484 326 4 26.7321 26 15.4 
27487 326 4 24 26.7321 15.4 
27486 326 4 25 27 15.4 
27485 326 4 26 26.7321 15.4 
27567 330 4 24 23.2679 16.5 
27568 330 4 25 23 16.5 
27569 330 4 26 23.2679 16.5 
27566 330 4 23.2679 24 16.5 
27557 330 4 24.5 24.134 16.5 
27558 330 4 25.5 24.134 16.5 
27570 330 4 26.7321 24 16.5 
27565 330 4 23 25 16.5 
27556 330 4 24 25 16.5 
27552 330 4 25 25 16.5 
27553 330 4 26 25 16.5 
27559 330 4 27 25 16.5 
27564 330 4 23.2679 26 16.5 
27555 330 4 24.5 25.866 16.5 
27554 330 4 25.5 25.866 16.5 
27560 330 4 26.7321 26 16.5 
27563 330 4 24 26.7321 16.5 
27562 330 4 25 27 16.5 
27561 330 4 26 26.7321 16.5 
27757 340 4 24 23.2679 24.2 
27758 340 4 25 23 24.2 
27759 340 4 26 23.2679 24.2 
27756 340 4 23.2679 24 24.2 
27747 340 4 24.5 24.134 24.2 
27748 340 4 25.5 24.134 24.2 
27760 340 4 26.7321 24 24.2 
27755 340 4 23 25 24.2 
27746 340 4 24 25 24.2 
27742 340 4 25 25 24.2 
27743 340 4 26 25 24.2 
27749 340 4 27 25 24.2 
27754 340 4 23.2679 26 24.2 
27745 340 4 24.5 25.866 24.2 
27744 340 4 25.5 25.866 24.2 
27750 340 4 26.7321 26 24.2 
27753 340 4 24 26.7321 24.2 
27752 340 4 25 27 24.2 
27751 340 4 26 26.7321 24.2 
27814 343 4 24 23.2679 27.5 
27815 343 4 25 23 27.5 
27816 343 4 26 23.2679 27.5 
27813 343 4 23.2679 24 27.5 
27804 343 4 24.5 24.134 27.5 
27805 343 4 25.5 24.134 27.5 
27817 343 4 26.7321 24 27.5 
27812 343 4 23 25 27.5 
27803 343 4 24 25 27.5 
27799 343 4 25 25 27.5 
27800 343 4 26 25 27.5 
27806 343 4 27 25 27.5 
27811 343 4 23.2679 26 27.5 
27802 343 4 24.5 25.866 27.5 
27801 343 4 25.5 25.866 27.5 
27807 343 4 26.7321 26 27.5 
27810 343 4 24 26.7321 27.5 
27809 343 4 25 27 27.5 
27808 343 4 26 26.7321 27.5 
27947 350 4 24 23.2679 31.9 
27948 350 4 25 23 31.9 
27949 350 4 26 23.2679 31.9 
27946 350 4 23.2679 24 31.9 
27937 350 4 24.5 24.134 31.9 
27938 350 4 25.5 24.134 31.9 
27950 350 4 26.7321 24 31.9 
27945 350 4 23 25 31.9 
27936 350 4 24 25 31.9 
27932 350 4 25 25 31.9 
27933 350 4 26 25 31.9 
27939 350 4 27 25 31.9 
27944 350 4 23.2679 26 31.9 
27935 350 4 24.5 25.866 31.9 
27934 350 4 25.5 25.866 31.9 
27940 350 4 26.7321 26 31.9 
27943 350 4 24 26.7321 31.9 
27942 350 4 25 27 31.9 
27941 350 4 26 26.7321 31.9 
ITEM: TIMESTEP
100000
ITEM: NUMBER OF ATOMS
950
ITEM: BOX BOUNDS pp pp pp
0.0000000000000000e+00 3.4000000000000000e+01
0.0000000000000000e+00 3.4000000000000000e+01
0.0000000000000000e+00 3.4000000000000000e+01
ITEM: ATOMS id mol type x y z 
27183 310 4 5.53881 3.97214 5.03555 
27185 310 4 3.61925 3.99181 5.59673 
27184 310 4 4.61253 4.22575 5.42219 
27190 310 4 4.11241 0.586602 3.83901 
27179 310 4 5.10569 0.820548 3.66447 
27189 310 4 3.18614 0.840209 4.22566 
27188 310 4 2.57506 1.51342 4.72081 
27178 310 4 3.77431 1.62319 4.42813 
27173 310 4 4.73408 1.61336 4.14754 
27172 310 4 4.36247 2.40618 4.6306 
27174 310 4 5.32225 2.39635 4.35001 
27187 310 4 2.44292 2.42584 5.19179 
27177 310 4 3.4027 2.41601 4.9112 
27186 310 4 2.82512 3.33299 5.5124 
27176 310 4 3.99086 3.19899 5.11367 
27175 310 4 4.95064 3.18916 4.83308 
27419 323 4 5.13434 5.07174 10.5158 
27362 320 4 5.04689 5.06552 10.5662 
27267 315 4 5.08039 5.04904 10.5344 
27371 320 4 4.2017 4.77835 8.77644 
27284 315 4 4.1969 4.78461 8.75972 
27435 323 4 4.26606 4.8483 8.72798 
27436 323 4 5.27434 4.96399 8.52357 
27370 320 4 5.20432 4.9411 8.57628 
27285 315 4 5.20081 4.9143 8.54259 
27433 323 4 3.15529 4.81147 10.3908 
27365 320 4 4.06536 4.88611 10.4998 
27434 323 4 3.49043 4.79247 9.41142 
27283 315 4 3.42972 4.72577 9.45237 
27372 320 4 3.42555 4.69256 9.45617 
27424 323 4 4.31239 4.9321 9.96359 
27273 315 4 4.63864 4.91683 9.64706 
27364 320 4 4.62429 4.92194 9.67131 
27268 315 4 5.62642 5.06457 9.69679 
27425 323 4 5.20434 5.01787 9.51967 
27363 320 4 5.60582 5.10135 9.73775 
27272 315 4 4.09261 4.9013 10.4847 
27423 323 4 4.24239 4.98598 10.9597 
27373 320 4 3.08383 4.70669 10.4333 
27282 315 4 3.10484 4.75355 10.435 
27281 315 4 3.3093 4.86051 11.4442 
27367 320 4 5.46949 5.20911 11.4611 
27366 320 4 4.48796 5.0297 11.3946 
27280 315 4 3.98832 5.01799 12.2096 
27431 323 4 4.02358 5.03491 12.1785 
27375 320 4 3.92903 4.99387 12.2231 
27422 323 4 5.06435 5.12561 11.5118 
27374 320 4 3.26812 4.81698 11.4461 
27270 315 4 5.52213 5.18126 11.4218 
27279 315 4 4.95996 5.18379 12.5262 
27376 320 4 4.88946 5.18995 12.5561 
27430 323 4 4.99435 5.17948 12.5079 
27432 323 4 3.35044 4.90021 11.4036 
27271 315 4 4.53435 5.03352 11.372 
27689 337 4 4.05483 4.09553 22.3977 
27701 337 4 4.08567 2.14288 21.3086 
27702 337 4 5.05277 1.82014 21.4885 
27700 337 4 3.3398 2.85076 21.4285 
27698 337 4 3.19835 4.61084 22.3677 
27691 337 4 4.98204 2.70018 21.9581 
27699 337 4 3.01502 3.75409 21.8162 
27690 337 4 4.12556 3.21549 21.9281 
27685 337 4 4.91131 3.58022 22.4277 
27688 337 4 4.84058 4.46027 22.8973 
27697 337 4 3.84066 5.19144 22.9353 
27696 337 4 4.76986 5.34031 23.3669 
27127 307 4 2.66576 16.9219 3.87587 
27087 305 4 4.64688 16.9596 3.95864 
27131 307 4 2.70784 13.4845 3.44814 
27093 305 4 2.69665 13.5075 3.42958 
27132 307 4 3.71074 13.2278 3.43997 
27094 305 4 3.70024 13.2542 3.40935 
27095 305 4 4.69619 13.5311 3.46543 
27133 307 4 4.70714 13.5028 3.49797 
27130 307 4 1.96716 14.2042 3.52029 
27092 305 4 1.95435 14.2234 3.52069 
27120 307 4 2.8268 14.7083 3.6036 
27082 305 4 2.81306 14.7285 3.6074 
27083 305 4 3.686 14.2439 3.55173 
27121 307 4 3.6986 14.2201 3.56344 
27116 307 4 4.55825 14.7241 3.64676 
27078 305 4 4.54471 14.7489 3.63844 
27122 307 4 5.43004 14.2359 3.6066 
27084 305 4 5.41765 14.2643 3.58278 
27129 307 4 1.68716 15.1941 3.63708 
27091 305 4 1.67223 15.21 3.65826 
27081 305 4 2.79882 15.7182 3.74978 
27115 307 4 3.68645 15.2123 3.68692 
27077 305 4 3.67177 15.2336 3.69411 
27119 307 4 2.81466 15.7005 3.72708 
27079 305 4 4.53048 15.7386 3.78082 
27117 307 4 4.5461 15.7164 3.77023 
27090 305 4 1.92588 16.2028 3.80544 
27128 307 4 1.94286 16.1888 3.76724 
27118 307 4 3.6743 16.2046 3.81039 
27080 305 4 3.65753 16.2233 3.83649 
27086 305 4 5.38918 16.2437 3.86753 
27124 307 4 5.40575 16.2204 3.85355 
27089 305 4 2.64734 16.936 3.92279 
27125 307 4 4.66506 16.9401 3.9257 
27312 317 4 3.35792 12.6394 6.7153 
27388 321 4 3.31678 12.7586 6.78895 
27313 317 4 4.39264 12.6092 6.69944 
27389 321 4 4.34978 12.6964 6.76004 
27390 321 4 5.27753 13.1513 6.82432 
27314 317 4 5.30506 13.0909 6.78482 
27399 321 4 2.45533 13.3213 6.90331 
27323 317 4 2.47816 13.1733 6.82817 
27306 317 4 3.64707 13.5794 6.89631 
27382 321 4 3.63689 13.6925 6.9484 
27383 321 4 4.61727 13.8888 6.96609 
27307 317 4 4.62064 13.8052 6.93107 
27322 317 4 1.98909 14.068 7.00779 
27398 321 4 1.99625 14.2337 7.07248 
27387 321 4 2.97662 14.43 7.09017 
27311 317 4 2.96265 14.2937 7.04255 
27305 317 4 3.93622 14.5194 7.07731 
27381 321 4 3.957 14.6263 7.10785 
27384 321 4 4.93738 14.8227 7.12554 
27308 317 4 4.90979 14.7452 7.11207 