ITEM: TIMESTEP
7000000
ITEM: NUMBER OF ATOMS
950
ITEM: BOX BOUNDS pp pp pp
7.3412088962025734e-01 3.3265879110386273e+01
7.3412088962025734e-01 3.3265879110386273e+01
7.3412088962025734e-01 3.3265879110386273e+01
ITEM: ATOMS id mol type x y z 
16687 0 5 2.48947 4.62767 2.91986 
23510 0 5 5.06927 2.21315 5.80794 
8753 0 5 2.3663 5.43903 5.61638 
23951 0 5 0.747409 1.25419 7.49718 
17718 0 5 2.61073 2.69858 6.42183 
1863 0 5 5.04768 5.10337 6.95129 
21900 0 5 2.02733 1.43603 7.97892 
3279 0 5 4.65744 5.60711 7.97754 
22274 0 5 3.9583 1.57139 12.5782 
26128 0 5 3.94179 5.9072 11.9713 
5725 0 5 2.07002 2.32623 14.979 
26840 0 5 1.24973 3.46258 13.7474 
22843 0 5 5.25701 3.31664 16.0351 
2833 0 5 5.92126 5.23463 18.4904 
2082 0 5 3.51408 1.29362 20.271 
3137 0 5 2.01713 5.49551 19.9696 
22488 0 5 3.74743 4.72296 21.4105 
21075 0 5 5.49448 5.55559 20.8751 
15230 0 5 1.12191 1.37897 24.5969 
19818 0 5 1.36756 0.82206 26.7821 
3410 0 5 3.12774 1.80228 26.1464 
25369 0 5 5.78622 1.64858 27.7704 
10439 0 5 2.99545 2.40733 30.5514 
16098 0 5 5.74242 1.69065 32.7515 
1048 0 5 0.987894 2.55873 32.9167 
22659 0 5 1.0865 7.87774 4.21964 
25794 0 5 4.80756 10.71 4.24414 
26563 0 5 0.960973 6.64199 7.14887 
7860 0 5 5.64711 11.3921 10.6599 
7036 0 5 4.36137 10.2705 9.89504 
10684 0 5 0.741465 9.18812 14.73 
13015 0 5 5.94447 10.8717 15.2065 
18692 0 5 4.18909 9.62871 18.5213 
15928 0 5 5.47391 7.00133 21.5934 
21073 0 5 3.72912 10.07 23.6324 
18394 0 5 1.75433 6.52725 25.234 
18284 0 5 2.2127 9.88992 25.4278 
23862 0 5 3.65213 6.31379 26.5225 
25633 0 5 6.03646 8.96282 28.9744 
488 0 5 5.38193 10.5996 30.295 
26651 0 5 3.21782 6.87168 32.5582 
17026 0 5 4.00222 12.31 0.81388 
1051 0 5 2.59785 12.0754 3.08653 
6664 0 5 3.00441 11.8357 4.10077 
17115 0 5 5.47874 14.2431 3.63885 
10052 0 5 1.09114 11.7654 4.99214 
12465 0 5 5.44718 11.7904 5.14699 
20561 0 5 4.33289 16.1076 5.98527 
4086 0 5 3.89056 13.3153 6.50077 
20856 0 5 2.60494 14.567 7.54174 
26791 0 5 3.36993 12.362 8.64034 
12000 0 5 4.94751 11.73 8.63417 
22089 0 5 3.215 15.332 9.66001 
1838 0 5 4.89144 13.6682 10.5631 
9085 0 5 2.58828 15.8376 10.5297 
16266 0 5 4.03804 12.0588 14.6192 
15728 0 5 3.99611 13.3424 14.6476 
20434 0 5 4.90703 14.0141 16.2605 
10812 0 5 5.5018 13.662 17.0571 
21342 0 5 1.53879 16.1657 17.1638 
24326 0 5 4.22078 16.9066 17.5555 
11764 0 5 1.03225 12.6784 19.1116 
10198 0 5 0.921644 16.0108 20.0282 
13757 0 5 4.6871 15.1069 21.7981 
14534 0 5 5.90869 14.5161 22.0505 
4103 0 5 3.2819 16.7526 22.0971 
5548 0 5 4.01598 14.1972 22.7895 
1135 0 5 5.11527 16.0133 22.5318 
8059 0 5 3.13059 11.936 24.8642 
9526 0 5 3.37598 14.3246 24.7728 
4278 0 5 2.29565 11.7722 27.8155 
14730 0 5 2.98266 11.592 30.7655 
10028 0 5 4.63388 14.1392 32.3273 
20624 0 5 0.960517 19.5485 1.51091 
24006 0 5 2.80435 17.2429 2.61721 
21912 0 5 4.00102 18.9835 7.00023 
26820 0 5 1.95953 20.8876 7.21124 
16356 0 5 0.902133 21.0559 6.99368 
23146 0 5 2.84921 18.4209 8.66109 
14157 0 5 3.29565 17.4763 8.50331 
20441 0 5 3.85347 18.0921 9.205 
21134 0 5 1.94641 20.6579 8.94459 
6813 0 5 3.30511 22.0092 8.11725 
20999 0 5 4.10945 21.4066 16.114 
2969 0 5 4.77076 22.1986 17.8865 
8014 0 5 6.08636 22.3258 17.8122 
14748 0 5 3.53102 19.714 18.9069 
5313 0 5 3.80886 18.3827 23.5569 
21958 0 5 1.43939 22.2833 27.0545 
538 0 5 4.85051 19.0129 28.724 
18840 0 5 4.15773 20.7995 27.9891 
7024 0 5 5.57824 21.6328 31.3449 
1904 0 5 2.43714 20.9224 32.6579 
14465 0 5 3.33569 23.722 1.35031 
23450 0 5 1.421 25.5369 2.07147 
8411 0 5 4.4399 27.814 4.31593 
6121 0 5 3.93404 23.9962 4.71661 
10359 0 5 2.13253 26.4714 6.29013 
17502 0 5 5.46285 27.1868 10.9783 
4268 0 5 4.14805 26.134 12.1559 
14483 0 5 4.93416 27.2138 12.0204 
17105 0 5 1.10605 24.0197 14.3843 
6838 0 5 2.17837 23.7052 14.3754 
2666 0 5 0.836952 22.6928 15.2709 
10975 0 5 4.6013 25.7161 16.2349 
24341 0 5 3.96365 26.4228 15.6588 
4588 0 5 5.63279 26.2059 16.2037 
23058 0 5 6.03102 22.4853 19.3425 
1886 0 5 0.766883 23.471 21.4623 
3893 0 5 1.65908 24.5439 28.9146 
9011 0 5 1.22648 24.5973 33.0825 
16786 0 5 0.960196 30.4861 2.27481 
5356 0 5 2.75743 29.7966 1.97373 
21220 0 5 5.93962 30.2919 0.962164 
26117 0 5 1.94501 29.3459 4.78705 
25049 0 5 3.73061 30.1763 5.44034 
18974 0 5 3.90249 31.3765 5.92451 
25170 0 5 3.65715 28.8293 7.18506 
21926 0 5 4.74215 29.0379 7.68973 
25226 0 5 2.55687 33.0548 7.11133 
19882 0 5 2.64986 32.4861 6.19477 
10709 0 5 4.73038 29.0263 9.19278 
19133 0 5 0.957234 32.1075 8.68297 
7627 0 5 2.76635 31.7205 10.1485 
26916 0 5 5.95226 32.2851 10.9013 
12371 0 5 1.03687 28.8669 13.0031 
10801 0 5 1.83462 33.0277 12.5146 
15083 0 5 5.99226 32.1496 11.9366 
18397 0 5 3.15789 29.3961 15.0347 
7118 0 5 5.54162 30.7522 13.4315 
6943 0 5 2.25763 32.7003 13.5282 
25154 0 5 0.879829 28.6219 15.5197 
6751 0 5 4.21375 29.0717 15.3874 
26900 0 5 0.930352 29.1913 18.3825 
11568 0 5 5.87426 28.0599 17.1156 
6968 0 5 1.43346 30.8195 19.6477 
9201 0 5 5.31325 29.9378 22.8248 
818 0 5 3.68639 32.9992 25.788 
12203 0 5 4.71866 33.0314 25.3452 
10989 0 5 1.44612 29.9001 28.2789 
8942 0 5 4.68832 30.4792 29.2624 
975 0 5 3.42889 28.3802 31.3348 
16581 0 5 3.88912 30.7633 30.9414 
14039 0 5 5.94902 28.7562 32.2717 
24180 0 5 3.77606 31.6194 31.6303 
7442 0 5 7.68762 3.91743 1.15866 
19310 0 5 9.61574 4.44853 2.02833 
217 0 5 7.55173 2.49817 3.163 
2505 0 5 9.95483 4.10539 3.0418 
13681 0 5 9.42315 5.86714 4.62483 
23017 0 5 8.36191 5.79096 7.79027 
16097 0 5 7.15439 1.61678 8.51516 
8280 0 5 7.1097 1.50187 13.0698 
2397 0 5 11.1429 2.65208 11.6651 
3076 0 5 8.2413 3.58211 14.9524 
19412 0 5 9.38153 3.51719 14.218 
13340 0 5 9.03775 4.23814 16.0174 
26379 0 5 6.83319 4.97125 15.3154 
5705 0 5 9.0001 2.63122 17.9237 
18495 0 5 7.24246 2.02967 19.3915 
9807 0 5 10.5825 2.85499 19.5654 
8866 0 5 11.5171 2.8366 21.957 
7765 0 5 6.32918 2.28592 23.076 
13640 0 5 10.458 1.316 23.294 
7770 0 5 11.2221 1.19799 28.6288 
23837 0 5 7.47297 3.22839 30.9411 
9634 0 5 10.7551 0.981478 31.5692 
21500 0 5 8.70583 2.92961 31.9357 
25191 0 5 9.315 5.71744 32.9971 
20655 0 5 7.77024 7.43599 5.23837 
19283 0 5 6.88739 10.4828 4.64209 
10588 0 5 10.3874 9.78555 4.35546 
23768 0 5 9.00793 7.2506 9.26753 
5870 0 5 11.5776 7.37094 9.39647 
21551 0 5 9.00515 11.4346 9.40994 
8424 0 5 11.3574 6.8717 11.4718 
15834 0 5 8.73456 10.7935 10.7508 
25244 0 5 6.83389 11.1268 14.8412 
26243 0 5 7.52324 6.59844 16.267 
17273 0 5 9.13635 9.25319 18.1854 
10673 0 5 9.35235 10.4472 22.461 
4495 0 5 8.06563 7.86302 24.9008 
14263 0 5 6.30219 9.20203 24.4878 
17175 0 5 11.0081 6.34945 29.1699 
17697 0 5 10.2741 11.2895 28.7665 
16554 0 5 6.3074 10.6376 32.3713 
15409 0 5 9.76293 10.1765 31.7665 
14081 0 5 9.91473 9.77389 33.0771 
5486 0 5 8.0759 12.0374 1.30114 
14221 0 5 7.17215 15.4033 1.63282 
18507 0 5 9.62581 15.9938 2.35199 
23780 0 5 8.74721 12.5461 4.59889 
6737 0 5 8.08389 16.8708 5.8262 
5778 0 5 6.65785 14.7248 6.36024 
3120 0 5 11.2497 16.8218 7.32532 
8980 0 5 7.38045 13.1692 9.42748 
15896 0 5 6.4415 13.7919 8.39889 
23468 0 5 10.9217 14.7824 12.1747 
26572 0 5 6.30098 15.6786 13.2406 
15413 0 5 8.75072 16.0464 12.5585 
21180 0 5 10.934 12.8059 14.0217 
3486 0 5 10.4541 16.2259 14.5249 
2718 0 5 9.57802 11.5789 17.8055 
24860 0 5 8.38173 13.0283 20.7666 
19406 0 5 11.3306 12.2503 21.6703 
7088 0 5 8.38754 14.8098 32.6617 
19751 0 5 10.7332 16.8119 33.0944 
26234 0 5 9.20945 19.6659 5.22984 
9942 0 5 8.03927 21.7569 5.33589 
21784 0 5 11.5151 19.9152 6.64027 
26382 0 5 8.41153 18.1293 8.1282 
13628 0 5 11.4389 17.1288 8.35264 
12528 0 5 7.39109 18.9323 9.76789 
21905 0 5 6.53486 19.3688 10.5987 
23402 0 5 7.75216 19.3833 10.6478 
14127 0 5 9.33561 21.3832 10.5061 
21785 0 5 7.19942 20.5542 13.2911 
21941 0 5 8.0523 20.07 12.8864 
4056 0 5 7.7811 17.8547 14.1795 
14161 0 5 8.88658 18.0558 14.0752 
10162 0 5 10.322 20.4849 15.1284 
5547 0 5 6.20735 22.0657 14.1716 
17707 0 5 11.2199 21.7399 14.5272 
19248 0 5 10.7119 22.4147 15.1792 
12939 0 5 9.65266 17.795 15.9522 
17683 0 5 10.8569 19.6094 16.1082 
15226 0 5 6.71593 21.9447 15.8489 
10196 0 5 8.67804 20.3554 17.4687 
10986 0 5 10.8253 18.05 19.7893 
25834 0 5 11.0649 21.6394 18.9207 
23137 0 5 7.29451 17.4531 21.4176 
11432 0 5 9.63146 17.4932 21.5468 
14398 0 5 10.0483 17.4729 22.6521 
7014 0 5 8.99827 19.3981 23.3511 
3977 0 5 9.98303 19.252 23.727 
21135 0 5 8.71069 19.5268 26.538 
7648 0 5 6.39378 18.4674 28.883 
7428 0 5 7.42343 18.7858 30.9182 
1593 0 5 8.6457 20.5869 30.4916 
12132 0 5 10.0276 19.2419 31.074 
890 0 5 8.18181 21.9353 30.3269 
19138 0 5 9.5253 17.5061 32.797 
10481 0 5 6.37928 21.729 32.3153 
5781 0 5 9.3613 27.8397 3.72564 
947 0 5 8.00383 27.2091 6.98461 
2536 0 5 11.3288 24.2764 9.65409 
15813 0 5 8.88345 27.344 9.49842 
1610 0 5 10.256 27.0189 9.09748 
11601 0 5 11.0255 25.8404 11.1934 
18485 0 5 6.23604 27.304 9.9021 
15722 0 5 9.07698 22.6941 14.8809 
24524 0 5 6.86678 22.5002 16.954 
7555 0 5 7.38108 24.0705 15.3526 
22175 0 5 8.48237 23.6524 16.0528 
20309 0 5 10.421 24.3514 16.1507 
738 0 5 10.223 24.0364 18.7315 
7063 0 5 6.90405 24.2807 17.5259 
6626 0 5 8.05452 23.8507 20.2953 
21528 0 5 7.73656 25.2561 19.2555 
18830 0 5 9.96343 25.2805 19.4928 
22441 0 5 7.69967 26.2927 19.1872 
13403 0 5 6.82215 25.1484 23.0832 
1309 0 5 7.63761 25.0577 23.9957 
24240 0 5 11.2503 24.2854 23.6443 
3124 0 5 7.71025 27.0397 23.0665 
10350 0 5 8.36398 22.6884 25.6076 
1934 0 5 8.97368 22.5241 27.0716 
18586 0 5 11.0943 24.9939 27.5824 
13479 0 5 8.92509 24.0249 28.4198 
16545 0 5 9.07531 24.2704 31.0835 
4695 0 5 10.7186 26.9562 30.6287 
18390 0 5 9.59041 26.8036 32.248 
17547 0 5 8.15059 28.8606 2.48628 
3453 0 5 9.65525 32.672 1.5788 
11262 0 5 10.2856 31.5275 1.47652 
14314 0 5 10.3615 29.1966 2.68136 
3472 0 5 10.1316 29.0462 3.65037 
21790 0 5 9.96284 33.041 3.89371 
15092 0 5 7.48279 29.1794 6.34985 
1284 0 5 9.7135 28.6895 7.81204 
2092 0 5 8.05208 30.6668 7.41401 
7049 0 5 8.49428 29.129 9.71504 
19451 0 5 8.37985 32.4097 8.69099 
1023 0 5 8.32682 28.4673 13.1491 
24251 0 5 6.3954 29.7625 12.4276 
9074 0 5 8.03261 29.8942 11.8415 
15786 0 5 10.6035 32.4982 14.8916 
7793 0 5 6.95334 32.6773 16.5705 
17029 0 5 11.4057 31.2528 18.416 
10831 0 5 6.22892 31.3861 19.1034 
18672 0 5 10.7574 30.7128 20.4363 
18093 0 5 9.78548 30.8461 19.6428 
22904 0 5 8.64101 32.0992 19.4682 
13765 0 5 10.9873 30.3653 24.0693 
15435 0 5 9.61795 31.843 22.4294 
24668 0 5 6.97872 28.3338 25.0684 
15852 0 5 7.5617 30.0588 25.0789 
26665 0 5 7.76417 30.9831 27.094 
24930 0 5 6.71013 30.9942 27.2231 
1403 0 5 7.26062 31.2159 29.0872 
10677 0 5 11.0886 30.7801 29.0352 
8162 0 5 10.8708 32.6347 28.9697 
26212 0 5 10.2489 32.5926 28.1198 
5674 0 5 11.5364 31.8152 30.6994 
1940 0 5 8.36962 29.3408 32.3006 
677 0 5 7.661 31.8632 32.313 
6196 0 5 15.4348 5.23814 1.19205 
308 0 5 16.0296 5.41414 3.32186 
16807 0 5 13.3797 1.17317 5.04287 
18194 0 5 14.8209 1.54481 4.82572 
20568 0 5 16.5806 1.84577 4.60655 
6381 0 5 16.5225 1.97442 5.61192 
12487 0 5 16.2802 1.5996 9.39294 
24393 0 5 16.1081 1.38742 13.3079 
14967 0 5 16.9191 1.10385 14.9539 
22940 0 5 15.5429 2.94359 15.1708 
4877 0 5 13.2535 4.81102 14.0772 
18659 0 5 15.8978 1.68591 16.359 
10810 0 5 11.8235 3.70347 16.1753 
3798 0 5 14.5712 4.47252 15.4294 
23636 0 5 16.7108 6.12058 15.8273 
22391 0 5 14.7735 1.37102 20.3341 
10772 0 5 15.5864 1.87925 20.9394 
963 0 5 16.4653 5.78109 21.3055 
20356 0 5 12.2109 1.08494 23.3966 
12488 0 5 14.5516 1.85041 27.5629 
8997 0 5 13.7422 2.93058 27.6344 
2283 0 5 13.9837 3.93233 26.7513 
10510 0 5 12.6575 3.4652 29.5646 
8070 0 5 15.7213 3.06284 28.6986 
15256 0 5 13.5137 5.2663 32.9002 
17321 0 5 16.7916 6.61096 4.75165 
19738 0 5 16.2152 8.46335 5.40138 
15182 0 5 16.4114 10.8374 5.21019 
1408 0 5 16.3587 7.53227 6.42327 
19691 0 5 12.8041 9.00784 7.65504 
23390 0 5 16.0136 8.20722 7.59521 
9876 0 5 15.2798 6.63081 9.33451 
47 0 5 11.6219 9.20681 8.07961 
1482 0 5 13.145 10.2312 8.24299 
5667 0 5 12.2895 9.54045 10.6263 
19477 0 5 14.7731 9.856 10.1051 
25949 0 5 13.9901 7.69556 12.9386 
12851 0 5 14.0034 6.63371 13.1749 
16561 0 5 14.3489 8.52682 12.2593 
4908 0 5 16.9895 8.94162 14.0738 
2410 0 5 15.3681 9.97583 15.054 
3022 0 5 15.3703 11.5227 14.083 
13714 0 5 12.5268 8.60929 15.8969 
14406 0 5 11.869 8.72789 17.4513 
18804 0 5 13.8384 8.35772 18.2646 
6863 0 5 13.5439 10.7906 18.0869 
20075 0 5 11.7217 8.30876 18.8311 
11400 0 5 14.9525 8.8588 18.8214 
618 0 5 16.3737 10.4168 19.654 
10516 0 5 12.5194 11.5159 21.4312 
21130 0 5 16.9921 11.1397 21.6476 
18178 0 5 12.1229 8.33691 22.6096 
23009 0 5 11.762 11.0322 25.2143 
6144 0 5 12.2349 6.63394 27.4252 
6668 0 5 14.0813 7.12843 27.2069 
14183 0 5 13.1797 10.972 31.2349 
3718 0 5 15.6446 13.3096 3.28223 
20083 0 5 13.1583 13.8193 3.20724 
6615 0 5 13.0308 13.8202 5.02278 
5078 0 5 16.7595 14.1939 5.17671 
18483 0 5 14.1773 15.774 4.85907 
8447 0 5 16.7494 15.2361 4.76784 
1332 0 5 16.1782 14.9779 7.04293 
20372 0 5 13.4352 11.6656 8.85834 
20246 0 5 15.7147 15.5307 8.86804 
9682 0 5 15.7181 16.6062 9.32002 
21158 0 5 14.2227 12.1133 10.9197 
1177 0 5 14.3044 13.2012 11.2618 
11626 0 5 14.4087 14.1554 10.6258 
14407 0 5 16.9716 11.7068 11.5999 
3408 0 5 14.7354 14.5203 11.8012 
25339 0 5 14.95 13.5287 12.0636 
24057 0 5 16.5412 14.3398 13.051 
13473 0 5 15.0675 15.5227 11.6431 
13697 0 5 16.7528 13.152 14.7443 
12463 0 5 12.2943 14.6866 13.7115 
15546 0 5 14.97 14.6225 14.52 
20718 0 5 15.759 16.8843 13.7984 
9174 0 5 15.3514 15.9325 13.8059 
553 0 5 16.061 14.2252 15.5987 
25279 0 5 14.8776 12.5697 18.2742 
9350 0 5 12.9537 16.8284 17.4757 
7101 0 5 15.1281 15.5782 17.146 
25939 0 5 16.7435 14.042 20.5535 
6557 0 5 13.152 15.5471 20.3413 
13130 0 5 14.5879 15.7828 20.4531 
12517 0 5 12.2552 12.4412 21.0977 
17737 0 5 13.4801 12.2897 23.8296 
26339 0 5 13.8314 14.2485 27.9959 
16206 0 5 13.1257 16.9755 29.4688 
26861 0 5 12.4327 16.8638 28.4695 
24694 0 5 12.9792 14.6931 29.6791 
10930 0 5 15.1981 14.8949 31.8787 
8807 0 5 12.356 17.2571 3.30054 
24490 0 5 14.0915 18.1345 2.99247 
13645 0 5 12.3705 19.0828 3.45283 
18964 0 5 15.0399 17.8522 5.9223 
18798 0 5 14.8993 20.5563 9.06751 
25628 0 5 15.2783 17.0318 10.4748 
22984 0 5 13.6347 19.1045 11.5164 
20421 0 5 13.9572 17.1953 16.6828 
5764 0 5 15.6466 21.8561 15.689 
25678 0 5 15.852 18.2169 19.3076 
62 0 5 12.3039 18.6618 21.534 
25202 0 5 14.2154 18.5845 23.4696 
4891 0 5 13.7932 19.2716 24.1549 
16782 0 5 16.805 19.1545 23.9011 
12498 0 5 15.4901 21.9022 22.6559 
12244 0 5 15.1428 18.147 24.463 
26539 0 5 15.9226 18.6002 25.3779 
10097 0 5 11.9396 19.6882 27.0651 
11765 0 5 16.7622 17.941 28.5073 
3629 0 5 16.26 20.6289 28.52 
2952 0 5 14.7982 22.3842 30.4029 
3806 0 5 12.3954 18.9628 31.9391 
26450 0 5 16.9276 19.8041 31.8271 
7098 0 5 16.2332 25.3825 2.86699 
22130 0 5 12.3311 23.5102 5.52843 
2908 0 5 14.5184 23.5431 6.15604 
9797 0 5 12.1672 23.7101 7.20866 
10378 0 5 15.3488 24.2525 11.5548 
23877 0 5 14.796 23.3102 11.7685 
17538 0 5 14.3341 25.3955 12.2926 
14467 0 5 13.0636 25.3726 15.0942 
21832 0 5 12.7513 22.9203 16.8887 
2423 0 5 11.8887 24.2442 16.1493 
17195 0 5 13.717 27.0696 16.1924 
9540 0 5 15.7733 26.1934 15.6489 
13637 0 5 11.8365 23.1018 19.4861 
9697 0 5 16.651 23.5143 18.9958 
16810 0 5 12.8296 27.3284 22.1485 
16576 0 5 14.7653 27.5721 20.8167 
19809 0 5 16.904 27.2946 23.1179 
24362 0 5 15.6915 22.8391 26.8103 
21205 0 5 12.9053 26.7559 27.4978 
23827 0 5 12.843 24.095 29.2315 
14622 0 5 12.9305 22.7743 31.1396 
14993 0 5 15.9294 23.6363 30.0975 
16094 0 5 11.9411 26.3879 30.0142 
12122 0 5 13.2683 32.2129 5.57523 
10783 0 5 15.1592 28.9329 6.18071 
12005 0 5 14.0223 29.6295 9.51011 
13422 0 5 16.0556 27.8941 9.40294 
20059 0 5 12.2198 33.262 8.98924 
20296 0 5 13.9223 27.9119 17.1909 
19270 0 5 16.5002 29.6533 18.6281 
3052 0 5 13.1932 28.2528 19.3965 
4071 0 5 16.995 29.9392 19.7007 
26344 0 5 15.9908 30.4742 19.5426 
5747 0 5 13.5715 28.7036 21.561 
25238 0 5 14.3369 29.6127 20.8794 
10888 0 5 13.1104 30.9642 21.703 
13541 0 5 12.8581 27.8619 23.0908 
1559 0 5 13.9169 29.5636 23.8456 
10804 0 5 16.8408 29.2302 24.0081 
4708 0 5 11.9599 29.8767 23.2486 
18730 0 5 13.8209 29.6949 25.1331 
21499 0 5 14.7696 32.9897 25.7795 
24329 0 5 15.5 27.9001 27.8055 
1493 0 5 13.129 30.726 27.4326 
5663 0 5 14.0545 30.594 27.7975 
23531 0 5 14.2404 29.6836 27.0861 
3984 0 5 15.458 31.5746 28.6288 
5739 0 5 16.4219 29.5103 29.8544 
24548 0 5 15.1152 28.4909 32.558 
6544 0 5 16.3569 30.0254 31.7069 
3618 0 5 13.6627 32.2868 32.5283 
734 0 5 18.4353 3.24179 4.91738 
24772 0 5 21.7068 3.38313 5.08954 
12119 0 5 21.0099 3.55587 7.41461 
8916 0 5 22.337 4.87082 6.20695 
5839 0 5 20.1823 1.38755 8.63563 
3097 0 5 19.9551 4.09761 9.80938 
20195 0 5 18.2711 1.8989 12.7083 
15482 0 5 19.9193 4.16255 13.2224 
26245 0 5 19.5018 4.71066 14.2324 
23932 0 5 17.2373 0.998775 16.3021 
3383 0 5 22.1646 3.67438 16.8664 
6403 0 5 18.3896 5.31295 16.3325 
24257 0 5 18.8636 5.02521 15.3341 
10203 0 5 18.0215 3.96472 22.4031 
22484 0 5 19.6359 3.6926 21.9077 
23871 0 5 18.7593 2.00675 23.4287 
15777 0 5 18.8911 2.03818 25.3573 
24786 0 5 18.7869 2.10112 27.2299 
10403 0 5 20.5385 1.54071 26.5114 
3560 0 5 18.777 1.66788 31.0914 
14477 0 5 19.9529 2.62116 33.1884 
21546 0 5 20.0294 3.15658 32.2876 
20836 0 5 22.0803 3.92034 33.0975 
11899 0 5 20.8148 3.72636 33.2254 
11127 0 5 18.6341 4.3842 32.1939 
15035 0 5 18.6322 6.95384 3.28882 
6966 0 5 17.8775 9.32945 5.0703 
15455 0 5 19.1325 9.67177 4.81039 
14272 0 5 17.1941 10.4436 5.70334 
16357 0 5 21.0549 10.9128 4.70015 
7240 0 5 19.6977 11.4274 10.0229 
21956 0 5 21.7429 6.82958 12.3412 
25594 0 5 19.8184 8.84469 12.8369 
6434 0 5 22.3222 8.72955 11.7668 
15674 0 5 18.4615 6.60676 13.4383 
19754 0 5 19.8698 7.54974 14.5602 
7227 0 5 18.6549 6.45275 15.8009 
7283 0 5 20.6743 6.5337 15.2191 
10894 0 5 18.0051 10.084 15.8207 
8007 0 5 22.3056 11.3577 20.4052 
24429 0 5 17.6115 6.74503 24.5165 
13669 0 5 17.5863 10.52 24.2911 
20706 0 5 21.5171 11.1149 25.5387 
3077 0 5 19.2988 10.2882 28.9875 
19801 0 5 21.2923 7.24231 29.8499 
17277 0 5 19.851 10.6985 29.9164 
4612 0 5 21.7431 8.89783 32.3621 
8924 0 5 17.176 12.6655 3.71702 
22923 0 5 22.0725 13.9142 3.37029 
9707 0 5 17.2977 16.9724 2.56893 
16975 0 5 20.3787 16.8825 4.15784 
203 0 5 17.714 12.3457 4.6241 
4790 0 5 20.2428 15.7773 4.54017 
9246 0 5 20.3832 12.4725 9.27621 
3808 0 5 19.6411 13.8804 14.3966 
4514 0 5 18.6179 11.8106 16.2015 
22140 0 5 19.945 14.951 16.8465 
11395 0 5 18.4697 16.4129 15.6803 
5599 0 5 18.247 15.4568 16.684 
20102 0 5 17.5835 14.7719 20.2481 
4700 0 5 18.4845 15.5131 18.8366 
3756 0 5 20.4032 14.975 22.0155 
18572 0 5 19.9471 16.137 22.3234 
23023 0 5 20.9562 14.9043 23.7777 
20430 0 5 18.6569 16.847 23.9517 
23995 0 5 22.4175 13.6041 24.5339 
13579 0 5 20.7341 13.8392 25.086 
25674 0 5 18.9144 15.0418 27.2652 
11229 0 5 20.1728 15.4934 29.086 
13012 0 5 20.1958 16.3939 30.07 
1767 0 5 17.3271 13.6954 32.855 
13913 0 5 17.959 18.4377 1.55248 
25306 0 5 19.5914 19.7451 2.37316 
2220 0 5 20.5638 20.0252 4.49495 
26567 0 5 21.1046 20.915 5.14897 
25131 0 5 21.6122 21.7068 7.13814 
17358 0 5 19.6684 18.9855 8.59885 
23132 0 5 20.3206 19.4617 9.49028 
7219 0 5 18.753 20.905 8.93074 
17552 0 5 20.3604 17.223 10.7597 
103 0 5 20.9004 19.9107 10.5011 
2856 0 5 20.6231 20.7044 9.92727 
6255 0 5 22.0027 17.3216 13.1586 
12544 0 5 21.2386 20.0975 12.9975 
4853 0 5 22.3112 20.4833 12.6812 
10182 0 5 17.2113 18.6553 14.031 
23091 0 5 21.4771 20.5424 15.4352 
23824 0 5 18.3704 20.8478 15.9935 
25849 0 5 17.429 17.1201 17.4909 
7566 0 5 21.8872 18.4896 18.0574 
23723 0 5 17.4315 19.9386 18.2365 
8409 0 5 18.9197 21.4501 17.8465 
19749 0 5 17.6843 19.6178 20.6827 
20050 0 5 21.8342 19.1825 21.2767 
4104 0 5 17.8676 19.1178 23.9907 
19680 0 5 21.397 18.8175 23.6416 
12147 0 5 19.1345 18.6875 25.3522 
18052 0 5 19.8409 18.1322 27.7281 
6248 0 5 18.1492 20.7067 26.348 
25688 0 5 21.1908 21.0755 26.7335 
19847 0 5 22.4066 21.5193 30.9854 
11066 0 5 20.2449 25.1615 2.38854 
4329 0 5 22.3539 25.7829 2.4296 
15883 0 5 19.2848 23.5243 5.39501 
4905 0 5 21.2029 23.8798 5.01292 
17332 0 5 22.0479 25.4042 5.60762 
4148 0 5 20.2987 26.7391 5.32005 
1330 0 5 20.8553 23.0721 7.57398 
6516 0 5 20.8582 25.2228 10.3788 
4894 0 5 20.7469 26.4467 11.3378 
1337 0 5 20.3869 24.4859 13.0009 
8438 0 5 19.2183 27.3846 11.8464 
23761 0 5 20.8081 25.5472 14.4811 
3100 0 5 17.5101 27.7307 13.8069 
5337 0 5 21.7836 26.2419 14.6526 
51 0 5 19.5646 24.5753 15.3291 
9569 0 5 19.4472 23.0855 17.0947 
4330 0 5 19.7928 23.0581 19.2908 
18602 0 5 18.471 27.3534 19.8084 
2213 0 5 19.19 23.1966 21.5383 
7435 0 5 22.1823 23.832 21.2503 
10134 0 5 20.7292 24.1114 21.5645 
1853 0 5 17.2496 27.1137 22.0852 
18681 0 5 18.0385 25.6094 24.0405 
9410 0 5 20.1095 26.0881 23.2998 
5321 0 5 20.7127 27.3318 22.5678 
22640 0 5 21.3948 22.6161 24.665 
6977 0 5 17.4207 26.1426 25.4776 
7854 0 5 18.4051 23.2452 28.9937 
23517 0 5 18.4333 22.8908 28.0372 
15547 0 5 18.6648 26.2539 32.8607 
25840 0 5 20.8754 29.5638 1.22983 
2857 0 5 22.1577 29.1449 6.7216 
10529 0 5 18.3561 32.772 6.71215 
21017 0 5 20.733 28.9746 8.28137 
5727 0 5 21.5503 29.9702 12.6679 
21396 0 5 19.5123 31.8627 12.2514 
25193 0 5 19.0445 29.4184 16.9622 
6728 0 5 19.8148 30.5847 16.3925 
614 0 5 18.1401 32.8772 15.9961 
1666 0 5 19.5936 31.223 17.2844 
22396 0 5 21.7274 30.9315 17.7609 
15414 0 5 22.0681 28.3416 19.5036 
1662 0 5 21.9027 29.3694 19.6717 
3122 0 5 21.6417 30.3241 20.705 
23896 0 5 21.9759 32.4893 22.087 
4456 0 5 20.3904 27.8828 23.8071 
8307 0 5 21.7519 28.1329 22.4823 
13041 0 5 17.935 30.3321 23.032 
19414 0 5 21.2545 28.9445 25.4943 
3919 0 5 18.3161 31.466 24.862 
7579 0 5 22.0135 31.7195 25.8865 
15139 0 5 17.6911 33.0625 27.358 
14168 0 5 20.3806 30.872 28.382 
24777 0 5 20.7192 30.4958 29.4001 
6140 0 5 21.2379 28.8844 32.0541 
9121 0 5 20.5412 30.8838 33.2137 
14189 0 5 23.059 1.03111 2.00862 
14091 0 5 25.3345 1.19222 1.40299 
15858 0 5 26.0272 1.10413 4.10879 
12884 0 5 24.624 3.00642 3.49397 
18536 0 5 27.6261 1.97946 5.69518 
21776 0 5 23.336 2.83641 4.55968 
24894 0 5 24.3395 5.58257 5.77036 
4502 0 5 23.4213 2.84181 9.25399 
11002 0 5 25.5857 5.20427 11.9044 
10040 0 5 23.1365 4.55407 14.4033 
19615 0 5 23.2084 3.22832 16.4316 
18598 0 5 26.8072 5.36784 20.6169 
1461 0 5 26.3559 3.62322 23.171 
4165 0 5 22.6969 3.18769 28.3415 
2716 0 5 24.1317 2.89182 28.94 
6957 0 5 26.7782 4.23939 28.7591 
13205 0 5 23.2976 8.72629 2.64176 
12992 0 5 22.6624 9.47095 2.9037 
23002 0 5 25.8203 11.485 3.15805 
15790 0 5 26.848 6.36696 5.6504 
18505 0 5 22.5626 7.07563 7.24076 
23666 0 5 23.9691 11.1505 6.67864 
18902 0 5 26.0757 10.2996 6.34485 
2312 0 5 25.4299 11.3122 8.68125 
22815 0 5 26.6638 6.91752 13.9781 
24635 0 5 23.9405 11.2332 14.7961 
5067 0 5 26.2918 10.5284 15.0306 
4653 0 5 26.3293 6.66118 15.704 
13690 0 5 26.7392 10.1459 16.9205 
14553 0 5 27.0774 9.87466 15.6555 
15876 0 5 24.1078 6.44363 20.5934 
5347 0 5 25.199 6.97844 20.3597 
18808 0 5 25.3419 6.18593 19.4512 
23638 0 5 26.5222 9.70129 21.3751 
9491 0 5 25.7222 9.30257 23.004 
19354 0 5 24.0215 6.74602 26.9265 
9640 0 5 27.8071 9.262 26.6834 
22939 0 5 23.0344 10.0011 26.8008 
25531 0 5 22.9059 6.95978 28.5275 
18857 0 5 24.3249 6.16097 29.9797 
25177 0 5 26.6633 6.86474 31.3325 
10455 0 5 24.1509 10.6449 32.3789 
19896 0 5 25.4644 15.5847 1.87801 
10822 0 5 27.6105 16.4821 0.852728 
26611 0 5 22.5547 12.5884 3.61632 
10904 0 5 27.0034 15.2178 6.07947 
21440 0 5 26.814 13.4069 6.89493 
1275 0 5 25.7481 13.6237 9.84918 
19675 0 5 27.2836 16.6139 10.9886 
23394 0 5 26.2267 14.2853 13.2629 
4282 0 5 26.1917 11.767 14.5842 
25953 0 5 25.4379 16.4109 13.664 
3073 0 5 25.7298 11.8711 18.0557 
11700 0 5 23.6333 14.8878 18.7971 
20806 0 5 27.3745 16.7401 18.6424 
12953 0 5 25.4843 12.3391 19.8516 
8408 0 5 27.4361 14.5904 19.8126 
19418 0 5 24.9651 15.6479 18.8568 
21150 0 5 27.7491 16.0714 30.1899 
7105 0 5 27.0308 21.3506 0.747639 
16717 0 5 22.5476 17.1682 4.9109 
7056 0 5 23.6904 18.393 5.5696 
23953 0 5 23.3358 17.4975 5.86465 
16541 0 5 24.28 21.5321 4.73975 
21076 0 5 26.8798 20.6163 6.00169 
22405 0 5 23.2138 19.6056 7.03161 
8687 0 5 24.2437 19.8089 6.77987 
5354 0 5 23.502 17.6264 8.33927 
15773 0 5 23.073 21.4313 8.85199 
9411 0 5 27.1371 21.5254 7.99478 
13157 0 5 23.7386 18.3589 10.9145 
2362 0 5 23.012 17.673 11.5437 
18239 0 5 27.8344 18.6737 10.9474 
8609 0 5 23.4182 19.4025 10.8518 
5755 0 5 24.4845 22.0614 11.1563 
4915 0 5 27.1121 17.4094 12.5319 
20494 0 5 24.0156 21.0944 11.7271 
17361 0 5 25.7371 19.8921 14.2253 
18181 0 5 25.6451 18.7454 17.7357 
16622 0 5 26.4831 17.5304 20.3644 
19973 0 5 24.8648 19.8271 19.3304 
14486 0 5 24.7851 17.5653 22.008 
25327 0 5 26.4631 21.6022 24.1954 
6313 0 5 24.752 20.0715 24.6725 
17194 0 5 24.6537 21.3452 31.1038 
6145 0 5 26.9249 21.3304 30.984 
22406 0 5 22.9111 24.1535 1.80795 
23487 0 5 22.4632 23.0997 2.13387 
22492 0 5 26.2535 25.5642 2.00802 
3811 0 5 24.2389 26.9303 0.781131 
19458 0 5 26.8338 26.6317 1.06801 
17815 0 5 23.4804 27.6066 3.11271 
11056 0 5 27.7937 27.4245 2.86601 
19465 0 5 26.5209 22.9802 6.36553 
23884 0 5 22.4813 24.188 8.71954 
7058 0 5 25.7137 23.8114 8.5564 
16829 0 5 23.5039 26.6854 9.00964 
7888 0 5 24.0172 23.1308 11.1746 
18099 0 5 24.8776 25.8688 10.537 
5769 0 5 24.1477 26.6342 9.99174 
21163 0 5 26.903 26.0867 11.2426 
22583 0 5 23.1591 22.9614 13.0451 
13193 0 5 26.167 26.2523 12.5509 
26848 0 5 23.2458 23.2107 16.4154 
19302 0 5 25.6572 27.24 15.495 
25580 0 5 26.8667 24.5341 17.0453 
24955 0 5 27.5971 25.8947 24.1962 
12535 0 5 27.3721 23.327 25.703 
4429 0 5 22.4531 26.3592 31.2111 
16531 0 5 26.13 24.868 32.5465 
18009 0 5 22.6824 32.0443 1.14766 
14448 0 5 26.2612 32.0051 2.17369 
8861 0 5 24.1473 31.5201 3.11561 
26734 0 5 26.6851 31.4401 8.23579 
3342 0 5 27.3585 32.454 9.75273 
14544 0 5 27.0564 29.1804 9.94064 
3130 0 5 24.696 29.8503 11.113 
17721 0 5 26.3974 31.0301 10.2435 
21206 0 5 24.2581 31.4601 9.9146 
21507 0 5 26.7885 32.8846 10.5409 
5961 0 5 23.5234 29.0449 12.3411 
1538 0 5 22.5051 29.4642 13.1318 
8873 0 5 27.0842 28.8173 13.1282 
18418 0 5 27.474 31.325 12.0925 
16437 0 5 25.5206 33.1148 12.285 
8209 0 5 27.2717 32.1022 13.0083 
4432 0 5 27.4285 32.4241 11.8871 
24063 0 5 26.8093 30.0496 13.6976 
12584 0 5 26.5287 31.7159 13.6887 
3061 0 5 24.138 29.414 16.002 
11223 0 5 25.6992 30.6814 16.235 
23214 0 5 25.7956 32.8516 15.9214 
5412 0 5 24.9162 29.8441 18.8258 
19391 0 5 26.7232 28.7598 22.2708 
1526 0 5 27.8418 32.7665 20.6531 
26872 0 5 27.0069 29.3993 23.1536 
24790 0 5 22.5794 32.2862 23.0683 
20074 0 5 25.6289 29.4378 25.5914 
6065 0 5 23.6544 30.0407 25.8355 
24347 0 5 23.1775 30.3395 24.8427 
361 0 5 23.8794 30.3161 29.0132 
24351 0 5 27.1006 30.1474 28.3945 
14480 0 5 25.2208 30.6535 29.9229 
17537 0 5 23.4706 29.8849 31.5929 
21145 0 5 29.6719 2.48356 1.69328 
16111 0 5 32.9785 4.72354 3.16903 
3066 0 5 30.3685 2.44657 4.37466 
15789 0 5 30.3035 5.19902 6.01768 
14931 0 5 30.1765 1.98975 8.50863 
5428 0 5 28.3452 3.0206 11.464 
10394 0 5 31.6902 3.93732 11.1195 
4424 0 5 33.0015 5.19299 10.1149 
21346 0 5 29.4313 1.81029 12.7383 
5662 0 5 28.0103 1.38355 12.401 
4807 0 5 30.5251 2.2224 12.1019 
5107 0 5 32.716 1.09549 11.8176 
23486 0 5 30.3645 1.66274 14.0478 
16679 0 5 29.9469 3.82032 14.5148 
9115 0 5 32.3332 4.22967 13.7177 
23683 0 5 31.0864 1.58495 16.9771 
4311 0 5 32.5932 3.02868 15.9682 
23619 0 5 28.765 2.47643 18.0257 
4928 0 5 30.6598 3.68948 18.0199 
3985 0 5 28.6287 1.75445 19.0061 
23264 0 5 27.8811 5.3427 20.6365 
19456 0 5 31.5181 2.55094 23.5586 
16413 0 5 32.4952 3.01598 23.5497 
10066 0 5 32.3964 5.07156 23.7041 
26257 0 5 30.9564 5.45065 24.4626 
7501 0 5 33.1007 5.54562 25.7027 
21067 0 5 28.431 1.46902 30.4537 
1393 0 5 32.91 1.11332 30.1729 
23030 0 5 30.183 6.4775 1.13216 
17568 0 5 29.6367 9.8895 1.13564 
16702 0 5 33.1622 9.07449 3.908 
824 0 5 33.1666 11.1788 4.13404 
20208 0 5 31.5386 11.2402 3.28115 
20243 0 5 32.9835 6.75736 5.32473 
5699 0 5 32.39 10.8192 4.74053 
24122 0 5 28.1608 9.39966 6.42936 
13356 0 5 31.76 7.61454 8.38302 
6955 0 5 28.0529 7.93821 10.8367 
15487 0 5 30.0103 7.04322 10.0258 
23845 0 5 29.9715 10.7451 10.2271 
19282 0 5 31.686 10.8433 10.985 
24757 0 5 31.7063 6.59721 12.5788 
25680 0 5 32.4416 7.62217 13.5684 
11107 0 5 30.5693 10.7077 15.1452 
2319 0 5 29.3747 7.91039 16.0578 
17739 0 5 31.4828 8.14989 15.5454 
24258 0 5 28.5949 10.1803 16.0453 
12373 0 5 30.6925 7.05297 17.804 
5311 0 5 31.9603 10.042 17.2654 
23781 0 5 29.8191 10.1288 20.5886 
6851 0 5 28.2694 6.37808 20.7336 
21612 0 5 32.4448 8.69003 22.1284 
24210 0 5 28.5547 11.3882 24.1656 
21018 0 5 29.7716 11.1253 23.481 
4306 0 5 33.1387 8.73447 25.2009 
3801 0 5 28.6632 6.58575 27.7736 
13907 0 5 31.9965 8.88366 27.6742 
1011 0 5 30.4882 7.90632 29.0354 
20037 0 5 32.8075 6.71733 28.5207 
23880 0 5 32.8917 10.8581 29.4373 
11172 0 5 30.4055 7.74239 30.1036 
22632 0 5 31.6945 6.3398 30.3353 
14321 0 5 28.3585 10.8715 30.0972 
4007 0 5 31.916 10.2561 32.6317 
11448 0 5 31.9643 11.4863 32.3032 
3857 0 5 28.3846 14.8343 0.984022 
3892 0 5 33.1915 16.7903 2.14466 
5036 0 5 32.421 14.9346 3.84422 
1874 0 5 32.7524 15.6986 3.33474 
16318 0 5 28.951 12.12 4.96818 
23874 0 5 31.6825 16.9893 4.44311 
17691 0 5 29.8497 15.9774 6.81601 
11989 0 5 30.3601 13.6815 9.30525 
22887 0 5 30.9766 16.3127 10.5314 
15495 0 5 30.0404 16.1938 10.066 
5088 0 5 29.0354 12.2082 14.1175 
1824 0 5 28.4545 14.9781 14.2289 
22373 0 5 32.4683 15.6662 15.0232 
15525 0 5 29.8385 13.1966 15.7126 
4593 0 5 28.6841 15.6226 18.3214 
23373 0 5 29.1471 11.7471 20.608 
22014 0 5 32.1444 12.6854 23.1438 
14069 0 5 32.5697 13.5943 23.0857 
25331 0 5 29.6604 12.707 25.1124 
11591 0 5 32.2603 12.6113 24.9935 
11464 0 5 28.8752 16.0057 25.7875 
24376 0 5 29.941 13.3253 28.0604 
12081 0 5 31.926 11.5837 28.8909 
17052 0 5 31.2261 11.7669 29.7546 
11932 0 5 29.5399 15.1604 30.0757 
16978 0 5 31.4572 14.9685 30.0053 
6497 0 5 33.1156 22.1287 6.718 
4934 0 5 29.453 17.0662 9.42006 
4925 0 5 32.9228 19.6448 8.58783 