ITEM: TIMESTEP
0
ITEM: NUMBER OF ATOMS
950
ITEM: BOX BOUNDS pp pp pp
0.0000000000000000e+00 3.4000000000000000e+01
0.0000000000000000e+00 3.4000000000000000e+01
0.0000000000000000e+00 3.4000000000000000e+01
ITEM: ATOMS id mol type x y z 
62 0 5 2.7 1.6 0.5 
963 0 5 2.7 2.7 1.5 
1023 0 5 4.9 2.7 1.5 
1863 0 5 2.7 2.7 2.5 
3718 0 5 3.8 2.7 4.5 
4502 0 5 0.5 1.6 5.5 
8162 0 5 2.7 1.6 9.5 
9121 0 5 4.9 0.5 10.5 
10801 0 5 0.5 0.5 12.5 
10804 0 5 0.5 3.8 12.5 
11764 0 5 2.7 3.8 13.5 
11765 0 5 2.7 4.9 13.5 
14465 0 5 2.7 4.9 16.5 
16318 0 5 3.8 2.7 18.5 
17105 0 5 0.5 4.9 19.5 
18902 0 5 0.5 1.6 21.5 
18964 0 5 2.7 3.8 21.5 
19801 0 5 0.5 0.5 22.5 
23402 0 5 0.5 1.6 26.5 
23517 0 5 3.8 3.8 26.5 
23516 0 5 3.8 4.9 26.5 
24362 0 5 2.7 1.6 27.5 
25202 0 5 0.5 1.6 28.5 
51 0 5 1.6 10.4 0.5 
1011 0 5 3.8 10.4 1.5 
1853 0 5 1.6 8.2 2.5 
4612 0 5 3.8 9.3 5.5 
9115 0 5 3.8 6 10.5 
10028 0 5 4.9 8.2 11.5 
10810 0 5 0.5 10.4 12.5 
10930 0 5 4.9 10.4 12.5 
13628 0 5 4.9 8.2 15.5 
14406 0 5 0.5 6 16.5 
14407 0 5 0.5 7.1 16.5 
14467 0 5 2.7 7.1 16.5 
15414 0 5 3.8 7.1 17.5 
15413 0 5 3.8 8.2 17.5 
16206 0 5 0.5 6 18.5 
16266 0 5 2.7 6 18.5 
18009 0 5 0.5 9.3 20.5 
18052 0 5 1.6 9.3 20.5 
19809 0 5 0.5 9.3 22.5 
20706 0 5 0.5 6 23.5 
23468 0 5 2.7 8.2 26.5 
24429 0 5 4.9 9.3 27.5 
24351 0 5 1.6 10.4 27.5 
25327 0 5 4.9 7.1 28.5 
25330 0 5 4.9 10.4 28.5 
26212 0 5 3.8 9.3 29.5 
47 0 5 1.6 14.8 0.5 
947 0 5 1.6 14.8 1.5 
975 0 5 2.7 15.9 1.5 
1874 0 5 2.7 14.8 2.5 
1934 0 5 4.9 14.8 2.5 
2833 0 5 4.9 13.7 3.5 
4514 0 5 0.5 14.8 5.5 
5412 0 5 0.5 12.6 6.5 
6313 0 5 0.5 13.7 7.5 
6434 0 5 4.9 14.8 7.5 
8209 0 5 3.8 12.6 9.5 
9011 0 5 0.5 11.5 10.5 
9074 0 5 2.7 14.8 10.5 
9134 0 5 4.9 14.8 10.5 
10812 0 5 0.5 12.6 12.5 
14448 0 5 1.6 13.7 16.5 
14534 0 5 4.9 14.8 16.5 
15409 0 5 3.8 12.6 17.5 
15435 0 5 4.9 15.9 17.5 
17115 0 5 0.5 15.9 19.5 
17175 0 5 2.7 15.9 19.5 
18974 0 5 2.7 14.8 21.5 
19847 0 5 1.6 14.8 22.5 
20806 0 5 3.8 15.9 23.5 
21612 0 5 0.5 12.6 24.5 
22632 0 5 4.9 12.6 25.5 
23450 0 5 1.6 11.5 26.5 
23510 0 5 3.8 11.5 26.5 
23531 0 5 4.9 11.5 26.5 
23475 0 5 2.7 15.9 26.5 
24347 0 5 1.6 14.8 27.5 
25331 0 5 4.9 11.5 28.5 
25306 0 5 3.8 15.9 28.5 
26234 0 5 4.9 14.8 29.5 
77 0 5 2.7 18.1 0.5 
103 0 5 3.8 19.2 0.5 
1904 0 5 3.8 18.1 2.5 
1819 0 5 0.5 20.3 2.5 
1940 0 5 4.9 21.4 2.5 
2716 0 5 0.5 17 3.5 
2718 0 5 0.5 19.2 3.5 
3618 0 5 0.5 19.2 4.5 
5421 0 5 0.5 22.5 6.5 
6403 0 5 3.8 19.2 7.5 
6381 0 5 2.7 22.5 7.5 
7219 0 5 0.5 20.3 8.5 
7240 0 5 1.6 22.5 8.5 
9942 0 5 1.6 20.3 11.5 
10040 0 5 4.9 21.4 11.5 
10904 0 5 3.8 18.1 12.5 
11776 0 5 2.7 17 13.5 
13637 0 5 4.9 18.1 15.5 
13579 0 5 2.7 20.3 15.5 
13541 0 5 1.6 21.4 15.5 
13640 0 5 4.9 21.4 15.5 
14477 0 5 2.7 18.1 16.5 
14480 0 5 2.7 21.4 16.5 
19818 0 5 0.5 19.2 22.5 
20836 0 5 4.9 17 23.5 
20718 0 5 0.5 19.2 23.5 
22640 0 5 4.9 21.4 25.5 
23537 0 5 4.9 18.1 26.5 
24376 0 5 2.7 17 27.5 
24377 0 5 2.7 18.1 27.5 
24341 0 5 1.6 21.4 27.5 
25244 0 5 1.6 18.1 28.5 
25279 0 5 2.7 20.3 28.5 
25339 0 5 4.9 20.3 28.5 
26117 0 5 0.5 18.1 29.5 
26143 0 5 1.6 19.2 29.5 
1838 0 5 1.6 24.7 2.5 
1824 0 5 0.5 25.8 2.5 
1886 0 5 2.7 28 2.5 
5486 0 5 2.7 28 6.5 
6325 0 5 0.5 26.9 7.5 
7283 0 5 2.7 24.7 8.5 
9085 0 5 2.7 26.9 10.5 
10822 0 5 0.5 23.6 12.5 
13645 0 5 4.9 26.9 15.5 
14483 0 5 2.7 24.7 16.5 
14544 0 5 4.9 25.8 16.5 
14486 0 5 2.7 28 16.5 
17195 0 5 3.8 28 19.5 
18099 0 5 3.8 23.6 20.5 
19882 0 5 2.7 23.6 22.5 
19896 0 5 3.8 26.9 22.5 
20722 0 5 0.5 23.6 23.5 
22583 0 5 2.7 24.7 25.5 
23486 0 5 2.7 28 26.5 
24326 0 5 0.5 28 27.5 
25238 0 5 1.6 24.7 28.5 
25226 0 5 0.5 28 28.5 
26243 0 5 4.9 24.7 29.5 
26245 0 5 4.9 26.9 29.5 
1048 0 5 4.9 30.2 1.5 
3629 0 5 0.5 31.3 4.5 
4588 0 5 2.7 30.2 5.5 
4593 0 5 3.8 30.2 5.5 
5547 0 5 4.9 29.1 6.5 
5428 0 5 0.5 30.2 6.5 
5548 0 5 4.9 30.2 6.5 
7227 0 5 0.5 29.1 8.5 
10894 0 5 3.8 29.1 12.5 
10888 0 5 2.7 30.2 12.5 
10831 0 5 1.6 32.4 12.5 
17194 0 5 3.8 29.1 19.5 
18033 0 5 1.6 30.2 20.5 
18093 0 5 3.8 30.2 20.5 
19888 0 5 2.7 30.2 22.5 
22650 0 5 4.9 32.4 25.5 
23487 0 5 2.7 29.1 26.5 
24393 0 5 3.8 30.2 27.5 
24329 0 5 0.5 31.3 27.5 
26128 0 5 0.5 30.2 29.5 
5699 0 5 10.4 1.6 6.5 
6544 0 5 9.3 3.8 7.5 
7442 0 5 9.3 1.6 8.5 
8280 0 5 6 0.5 9.5 
10198 0 5 10.4 2.7 11.5 
10196 0 5 10.4 4.9 11.5 
12000 0 5 10.4 0.5 13.5 
13681 0 5 7.1 0.5 15.5 
15482 0 5 7.1 1.6 17.5 
16437 0 5 8.2 3.8 18.5 
17277 0 5 6 3.8 19.5 
18181 0 5 7.1 0.5 20.5 
18239 0 5 8.2 1.6 20.5 
18178 0 5 6 2.7 20.5 
18296 0 5 10.4 4.9 20.5 
19138 0 5 8.2 2.7 21.5 
20041 0 5 9.3 0.5 22.5 
20037 0 5 8.2 3.8 22.5 
20999 0 5 10.4 1.6 23.5 
21900 0 5 10.4 0.5 24.5 
21784 0 5 7.1 3.8 24.5 
21776 0 5 6 4.9 24.5 
21785 0 5 7.1 4.9 24.5 
23638 0 5 8.2 2.7 26.5 
23636 0 5 8.2 4.9 26.5 
26339 0 5 8.2 1.6 29.5 
26344 0 5 9.3 3.8 29.5 
1135 0 5 8.2 6 1.5 
2092 0 5 10.4 9.3 2.5 
3893 0 5 10.4 8.2 4.5 
3892 0 5 10.4 9.3 4.5 
7435 0 5 8.2 6 8.5 
9246 0 5 9.3 6 10.5 
9174 0 5 6 7.1 10.5 
10134 0 5 8.2 7.1 11.5 
10975 0 5 6 6 12.5 
10986 0 5 7.1 6 12.5 
10989 0 5 7.1 9.3 12.5 
11932 0 5 8.2 9.3 13.5 
13690 0 5 7.1 10.4 15.5 
15546 0 5 9.3 6 17.5 
15487 0 5 7.1 7.1 17.5 
15547 0 5 9.3 7.1 17.5 
17273 0 5 6 8.2 19.5 
17332 0 5 8.2 9.3 19.5 
19133 0 5 8.2 8.2 21.5 
19973 0 5 6 8.2 22.5 
20050 0 5 9.3 10.4 22.5 
21832 0 5 8.2 9.3 24.5 
21790 0 5 7.1 10.4 24.5 
24548 0 5 9.3 8.2 27.5 
24490 0 5 7.1 10.4 27.5 
2952 0 5 9.3 12.6 3.5 
3853 0 5 9.3 13.7 4.5 
4691 0 5 7.1 11.5 5.5 
4790 0 5 10.4 11.5 5.5 
4695 0 5 7.1 15.9 5.5 
7428 0 5 8.2 13.7 8.5 
10066 0 5 6 15.9 11.5 
11989 0 5 10.4 12.6 13.5 
12851 0 5 9.3 11.5 14.5 
13669 0 5 6 12.6 15.5 
13755 0 5 9.3 15.9 15.5 
15495 0 5 7.1 15.9 17.5 
18194 0 5 7.1 14.8 20.5 
20090 0 5 10.4 11.5 22.5 
21794 0 5 7.1 14.8 24.5 
25369 0 5 6 12.6 28.5 
2082 0 5 10.4 20.3 2.5 
3857 0 5 9.3 18.1 4.5 
3798 0 5 7.1 19.2 4.5 
3801 0 5 7.1 22.5 4.5 
4700 0 5 7.1 21.4 5.5 
5599 0 5 7.1 20.3 6.5 
6497 0 5 7.1 18.1 7.5 
6557 0 5 9.3 18.1 7.5 
9160 0 5 6 22.5 10.5 
9201 0 5 7.1 22.5 10.5 
10097 0 5 7.1 18.1 11.5 
10182 0 5 10.4 20.3 11.5 
11056 0 5 9.3 17 12.5 
11899 0 5 7.1 20.3 13.5 
12884 0 5 10.4 18.1 14.5 
13697 0 5 7.1 18.1 15.5 
13757 0 5 9.3 18.1 15.5 
14622 0 5 8.2 20.3 16.5 
15525 0 5 8.2 17 17.5 
16421 0 5 8.2 21.4 18.5 
17358 0 5 9.3 19.2 19.5 
17321 0 5 8.2 21.4 19.5 
17361 0 5 9.3 22.5 19.5 
18284 0 5 10.4 18.1 20.5 
20083 0 5 10.4 19.2 22.5 
20059 0 5 9.3 20.3 22.5 
23683 0 5 10.4 19.2 26.5 
24524 0 5 8.2 18.1 27.5 
26264 0 5 6 18.1 29.5 
26382 0 5 10.4 20.3 29.5 
26261 0 5 6 21.4 29.5 
203 0 5 7.1 24.7 0.5 
217 0 5 8.2 25.8 0.5 
1177 0 5 10.4 25.8 1.5 
2857 0 5 6 25.8 3.5 
2856 0 5 6 26.9 3.5 
3756 0 5 6 26.9 4.5 
3806 0 5 7.1 28 4.5 
5662 0 5 9.3 23.6 6.5 
5663 0 5 9.3 24.7 6.5 
6516 0 5 8.2 26.9 7.5 
10162 0 5 9.3 23.6 11.5 
11002 0 5 7.1 23.6 12.5 
11066 0 5 9.3 28 12.5 
13765 0 5 9.3 26.9 15.5 
15455 0 5 6 28 17.5 
16357 0 5 6 25.8 18.5 
16356 0 5 6 26.9 18.5 
20075 0 5 10.4 28 22.5 
20856 0 5 6 26.9 23.5 
22659 0 5 6 23.6 25.5 
23619 0 5 8.2 23.6 26.5 
23666 0 5 9.3 28 26.5 
25359 0 5 6 23.6 28.5 
26379 0 5 10.4 23.6 29.5 
26257 0 5 6 25.8 29.5 
1051 0 5 6 32.4 1.5 
2908 0 5 7.1 30.2 3.5 
2969 0 5 9.3 31.3 3.5 
3808 0 5 7.1 30.2 4.5 
3811 0 5 8.2 32.4 4.5 
4653 0 5 6 30.2 5.5 
4708 0 5 7.1 30.2 5.5 
5667 0 5 9.3 29.1 6.5 
5674 0 5 10.4 29.1 6.5 
8307 0 5 7.1 29.1 9.5 
10052 0 5 6 31.3 11.5 
13714 0 5 8.2 29.1 15.5 
14553 0 5 6 30.2 16.5 
16413 0 5 8.2 30.2 18.5 
20074 0 5 10.4 29.1 22.5 
22653 0 5 6 30.2 25.5 
361 0 5 13.7 0.5 0.5 
2220 0 5 14.8 0.5 2.5 
3061 0 5 13.7 0.5 3.5 
3120 0 5 14.8 0.5 3.5 
3122 0 5 15.9 1.6 3.5 
3124 0 5 15.9 3.8 3.5 
4925 0 5 15.9 4.9 5.5 
5764 0 5 13.7 3.8 6.5 
5705 0 5 11.5 4.9 6.5 
6664 0 5 13.7 3.8 7.5 
7501 0 5 11.5 0.5 8.5 
10203 0 5 11.5 2.7 11.5 
11223 0 5 15.9 2.7 12.5 
12119 0 5 14.8 1.6 13.5 
12122 0 5 15.9 1.6 13.5 
12005 0 5 11.5 4.9 13.5 
15722 0 5 15.9 1.6 17.5 
16501 0 5 11.5 0.5 18.5 
16561 0 5 13.7 0.5 18.5 
16622 0 5 15.9 1.6 18.5 
18418 0 5 14.8 2.7 20.5 
20102 0 5 11.5 1.6 22.5 
21958 0 5 12.6 2.7 24.5 
21905 0 5 11.5 4.9 24.5 
21956 0 5 12.6 4.9 24.5 
22923 0 5 15.9 2.7 25.5 
23761 0 5 13.7 0.5 26.5 
23824 0 5 15.9 3.8 26.5 
308 0 5 11.5 8.2 0.5 
1330 0 5 15.9 10.4 1.5 
2213 0 5 14.8 8.2 2.5 
3066 0 5 13.7 6 3.5 
3052 0 5 12.6 9.3 3.5 
3130 0 5 15.9 10.4 3.5 
4915 0 5 14.8 6 5.5 
4807 0 5 11.5 7.1 5.5 
4853 0 5 12.6 8.2 5.5 
4928 0 5 15.9 8.2 5.5 
5755 0 5 12.6 6 6.5 
5769 0 5 13.7 9.3 6.5 
6655 0 5 12.6 6 7.5 
6668 0 5 13.7 8.2 7.5 
6728 0 5 15.9 8.2 7.5 
7555 0 5 12.6 6 8.5 
7566 0 5 13.7 6 8.5 
7627 0 5 15.9 7.1 8.5 
8408 0 5 11.5 8.2 9.5 
8409 0 5 11.5 9.3 9.5 
9411 0 5 14.8 10.4 10.5 
11107 0 5 11.5 7.1 12.5 
11229 0 5 15.9 9.3 12.5 
13015 0 5 14.8 6 14.5 
12953 0 5 12.6 8.2 14.5 
13012 0 5 14.8 9.3 14.5 
13913 0 5 14.8 8.2 15.5 
15728 0 5 15.9 8.2 17.5 
16554 0 5 12.6 7.1 18.5 
19208 0 5 11.5 8.2 21.5 
19270 0 5 13.7 10.4 21.5 
21067 0 5 13.7 7.1 23.5 
21130 0 5 15.9 10.4 23.5 
22014 0 5 14.8 7.1 24.5 
22853 0 5 12.6 8.2 25.5 
23827 0 5 15.9 7.1 26.5 
23768 0 5 13.7 8.2 26.5 
24668 0 5 13.7 8.2 27.5 
25628 0 5 15.9 8.2 28.5 
1309 0 5 14.8 12.6 1.5 
1332 0 5 15.9 12.6 1.5 
1275 0 5 13.7 15.9 1.5 
3073 0 5 13.7 13.7 3.5 
4007 0 5 14.8 14.8 4.5 
4908 0 5 14.8 13.7 5.5 
4934 0 5 15.9 14.8 5.5 
5747 0 5 12.6 14.8 6.5 
6615 0 5 11.5 15.9 7.5 
8411 0 5 11.5 11.5 9.5 
8447 0 5 12.6 14.8 9.5 
9350 0 5 12.6 11.5 10.5 
9410 0 5 14.8 11.5 10.5 
11172 0 5 13.7 12.6 12.5 
12132 0 5 15.9 12.6 13.5 
13907 0 5 14.8 14.8 15.5 
14748 0 5 12.6 13.7 16.5 
15674 0 5 13.7 14.8 17.5 
19310 0 5 14.8 11.5 21.5 
19248 0 5 12.6 13.7 21.5 
20208 0 5 14.8 13.7 22.5 
21073 0 5 13.7 13.7 23.5 
21134 0 5 15.9 14.8 23.5 
21075 0 5 13.7 15.9 23.5 
21135 0 5 15.9 15.9 23.5 
21912 0 5 11.5 12.6 24.5 
22815 0 5 11.5 15.9 25.5 
25633 0 5 15.9 13.7 28.5 
26450 0 5 12.6 11.5 29.5 
26448 0 5 12.6 13.7 29.5 
1337 0 5 15.9 18.1 1.5 
3076 0 5 13.7 17 3.5 
3077 0 5 13.7 18.1 3.5 
3137 0 5 15.9 18.1 3.5 
3100 0 5 14.8 22.5 3.5 
3977 0 5 13.7 18.1 4.5 
3919 0 5 11.5 20.3 4.5 
4905 0 5 14.8 17 5.5 
4877 0 5 13.7 18.1 5.5 
5778 0 5 13.7 19.2 6.5 
5839 0 5 15.9 20.3 6.5 
5781 0 5 13.7 22.5 6.5 
6737 0 5 15.9 18.1 7.5 
7579 0 5 13.7 20.3 8.5 
12081 0 5 13.7 22.5 13.5 
13041 0 5 15.9 22.5 14.5 
16545 0 5 12.6 17 18.5 
16576 0 5 13.7 17 18.5 
16541 0 5 12.6 21.4 18.5 
16581 0 5 13.7 22.5 18.5 
17537 0 5 15.9 18.1 19.5 
17538 0 5 15.9 19.2 19.5 
17502 0 5 14.8 20.3 19.5 
19302 0 5 14.8 20.3 21.5 
19300 0 5 14.8 22.5 21.5 
21076 0 5 13.7 17 23.5 
21017 0 5 11.5 18.1 23.5 
21018 0 5 11.5 19.2 23.5 
21941 0 5 12.6 21.4 24.5 
22000 0 5 14.8 22.5 24.5 
22904 0 5 14.8 18.1 25.5 
22843 0 5 12.6 19.2 25.5 
22939 0 5 15.9 20.3 25.5 
22940 0 5 15.9 21.4 25.5 
23837 0 5 15.9 18.1 26.5 
23780 0 5 13.7 21.4 26.5 
23721 0 5 11.5 22.5 26.5 
23781 0 5 13.7 22.5 26.5 
24642 0 5 12.6 20.3 27.5 
25580 0 5 13.7 21.4 28.5 
26539 0 5 15.9 20.3 29.5 
1284 0 5 13.7 25.8 1.5 
3022 0 5 11.5 23.6 3.5 
3143 0 5 15.9 24.7 3.5 
3097 0 5 14.8 25.8 3.5 
3984 0 5 13.7 25.8 4.5 
3985 0 5 13.7 26.9 4.5 
5739 0 5 12.6 23.6 6.5 
5725 0 5 11.5 26.9 6.5 
6626 0 5 11.5 28 7.5 
8438 0 5 12.6 24.7 9.5 
8424 0 5 11.5 25.8 9.5 
11135 0 5 12.6 28 12.5 
12939 0 5 12.6 23.6 14.5 
18397 0 5 14.8 25.8 20.5 
19282 0 5 13.7 23.6 21.5 
19283 0 5 13.7 24.7 21.5 
20243 0 5 15.9 24.7 22.5 
20195 0 5 14.8 28 22.5 
20246 0 5 15.9 28 22.5 
21145 0 5 15.9 26.9 23.5 
21926 0 5 11.5 28 24.5 
23723 0 5 11.5 24.7 26.5 
23845 0 5 15.9 26.9 26.5 
24699 0 5 14.8 23.6 27.5 
24635 0 5 12.6 28 27.5 
4894 0 5 14.8 29.1 5.5 
4890 0 5 13.7 32.4 5.5 
4891 0 5 14.8 32.4 5.5 
5727 0 5 11.5 29.1 6.5 
7648 0 5 15.9 30.2 8.5 
10350 0 5 15.9 32.4 11.5 
11127 0 5 11.5 29.1 12.5 
12147 0 5 15.9 29.1 13.5 
12992 0 5 14.8 31.3 14.5 
14730 0 5 11.5 32.4 16.5 
16531 0 5 12.6 32.4 18.5 
17547 0 5 15.9 29.1 19.5 
18394 0 5 14.8 29.1 20.5 
18390 0 5 13.7 32.4 20.5 
21150 0 5 15.9 32.4 23.5 
22887 0 5 13.7 29.1 25.5 
24694 0 5 14.8 29.1 27.5 
25594 0 5 14.8 29.1 28.5 
25531 0 5 12.6 32.4 28.5 
538 0 5 19.2 2.7 0.5 
2283 0 5 18.1 2.7 2.5 
2397 0 5 21.4 3.8 2.5 
5036 0 5 19.2 4.9 5.5 
6838 0 5 19.2 2.7 7.5 
9540 0 5 19.2 0.5 10.5 
10439 0 5 19.2 1.6 11.5 
10378 0 5 17 2.7 11.5 
11400 0 5 21.4 0.5 12.5 
12298 0 5 21.4 2.7 13.5 
12244 0 5 20.3 3.8 13.5 
13205 0 5 22.5 4.9 14.5 
14039 0 5 19.2 1.6 15.5 
15777 0 5 17 3.8 17.5 
15896 0 5 21.4 4.9 17.5 
16679 0 5 17 1.6 18.5 
17697 0 5 21.4 3.8 19.5 
18602 0 5 22.5 1.6 20.5 
18483 0 5 18.1 2.7 20.5 
18598 0 5 21.4 2.7 20.5 
18485 0 5 18.1 4.9 20.5 
18536 0 5 19.2 4.9 20.5 
21180 0 5 17 0.5 23.5 
22140 0 5 19.2 0.5 24.5 
22984 0 5 18.1 3.8 25.5 
23880 0 5 17 0.5 26.5 
23877 0 5 17 3.8 26.5 
23884 0 5 18.1 3.8 26.5 
24777 0 5 17 3.8 27.5 
25680 0 5 17 0.5 28.5 
25678 0 5 17 2.7 28.5 
488 0 5 18.1 8.2 0.5 
1493 0 5 21.4 8.2 1.5 
2410 0 5 22.5 10.4 2.5 
4086 0 5 18.1 6 4.5 
4148 0 5 20.3 8.2 4.5 
4071 0 5 17 10.4 4.5 
5107 0 5 22.5 7.1 5.5 
7793 0 5 21.4 8.2 8.5 
7792 0 5 21.4 9.3 8.5 
10510 0 5 22.5 10.4 11.5 
11395 0 5 21.4 6 12.5 
13193 0 5 21.4 8.2 14.5 
14091 0 5 21.4 10.4 15.5 
14993 0 5 21.4 8.2 16.5 
14931 0 5 19.2 10.4 16.5 
15786 0 5 18.1 6 17.5 
15834 0 5 19.2 7.1 17.5 
15773 0 5 17 8.2 17.5 
15789 0 5 18.1 9.3 17.5 
15790 0 5 18.1 10.4 17.5 
16687 0 5 18.1 7.1 18.5 
16807 0 5 22.5 7.1 18.5 
16810 0 5 22.5 10.4 18.5 
17707 0 5 22.5 7.1 19.5 
17691 0 5 21.4 10.4 19.5 
22194 0 5 21.4 7.1 24.5 
22089 0 5 18.1 9.3 24.5 
23091 0 5 21.4 10.4 25.5 
23995 0 5 21.4 6 26.5 
24006 0 5 22.5 6 26.5 
23874 0 5 17 7.1 26.5 
23932 0 5 19.2 9.3 26.5 
23871 0 5 17 10.4 26.5 
24786 0 5 18.1 6 27.5 
24894 0 5 21.4 7.1 27.5 
24772 0 5 17 9.3 27.5 
24790 0 5 18.1 10.4 27.5 
25674 0 5 17 7.1 28.5 
25794 0 5 21.4 7.1 28.5 
25688 0 5 18.1 8.2 28.5 
26572 0 5 17 9.3 29.5 
553 0 5 20.3 13.7 0.5 
614 0 5 22.5 14.8 0.5 
1393 0 5 18.1 13.7 1.5 
5088 0 5 21.4 13.7 5.5 
5870 0 5 17 11.5 6.5 
6851 0 5 20.3 11.5 7.5 
8687 0 5 21.4 14.8 9.5 
9491 0 5 18.1 11.5 10.5 
9526 0 5 19.2 15.9 10.5 
10394 0 5 18.1 14.8 11.5 
10455 0 5 20.3 15.9 11.5 
13130 0 5 19.2 11.5 14.5 
15852 0 5 20.3 12.6 17.5 
16786 0 5 21.4 15.9 18.5 
17568 0 5 17 13.7 19.5 
18495 0 5 18.1 15.9 20.5 
18586 0 5 21.4 15.9 20.5 
19391 0 5 18.1 11.5 21.5 
19451 0 5 20.3 11.5 21.5 
21191 0 5 18.1 11.5 23.5 
22130 0 5 19.2 11.5 24.5 
23030 0 5 19.2 11.5 25.5 
22968 0 5 17 13.7 25.5 
23951 0 5 20.3 11.5 26.5 
23953 0 5 20.3 13.7 26.5 
26651 0 5 20.3 11.5 29.5 
26567 0 5 17 14.8 29.5 
618 0 5 22.5 19.2 0.5 
461 0 5 17 21.4 0.5 
580 0 5 21.4 22.5 0.5 
1482 0 5 21.4 20.3 1.5 
1461 0 5 20.3 22.5 1.5 
5961 0 5 20.3 22.5 6.5 
6861 0 5 20.3 22.5 7.5 
7756 0 5 20.3 17 8.5 
10516 0 5 22.5 17 11.5 
10481 0 5 21.4 21.4 11.5 
11262 0 5 17 20.3 12.5 
13157 0 5 20.3 18.1 14.5 
14081 0 5 21.4 21.4 15.5 
15858 0 5 20.3 19.2 17.5 
15883 0 5 21.4 19.2 17.5 
16782 0 5 21.4 20.3 18.5 
17683 0 5 21.4 19.2 19.5 
17718 0 5 22.5 19.2 19.5 
17721 0 5 22.5 22.5 19.5 
19456 0 5 20.3 17 21.5 
19458 0 5 20.3 19.2 21.5 
20296 0 5 18.1 17 22.5 
20356 0 5 20.3 17 22.5 
20421 0 5 22.5 22.5 22.5 
21163 0 5 17 19.2 23.5 
21220 0 5 19.2 22.5 23.5 
23023 0 5 19.2 19.2 25.5 
23058 0 5 20.3 19.2 25.5 
23896 0 5 18.1 17 26.5 
23862 0 5 17 20.3 26.5 
23981 0 5 21.4 21.4 26.5 
24860 0 5 20.3 21.4 27.5 
26563 0 5 17 19.2 29.5 
1403 0 5 18.1 24.7 1.5 
1526 0 5 22.5 28 1.5 
2319 0 5 19.2 23.6 2.5 
2362 0 5 20.3 23.6 2.5 
2423 0 5 22.5 24.7 2.5 
3279 0 5 21.4 23.6 3.5 
4103 0 5 18.1 24.7 4.5 
4104 0 5 18.1 25.8 4.5 
4056 0 5 17 26.9 4.5 
4165 0 5 20.3 26.9 4.5 
5078 0 5 21.4 24.7 5.5 
5906 0 5 18.1 28 6.5 
6863 0 5 20.3 24.7 7.5 
6755 0 5 17 28 7.5 
7765 0 5 20.3 26.9 8.5 
10359 0 5 17 23.6 11.5 
10403 0 5 18.1 24.7 11.5 
11423 0 5 22.5 24.7 12.5 
12203 0 5 18.1 24.7 13.5 
12157 0 5 17 25.8 13.5 
15876 0 5 21.4 26.9 17.5 
16702 0 5 18.1 23.6 18.5 
16704 0 5 18.1 25.8 18.5 
16717 0 5 19.2 25.8 18.5 
18505 0 5 18.1 26.9 20.5 
19418 0 5 19.2 24.7 21.5 
19477 0 5 21.4 25.8 21.5 
19465 0 5 20.3 26.9 21.5 
19406 0 5 18.1 28 21.5 
21158 0 5 17 24.7 23.5 
21205 0 5 18.1 26.9 23.5 
21206 0 5 18.1 28 23.5 
22175 0 5 21.4 28 24.5 
23002 0 5 18.1 23.6 25.5 
23017 0 5 19.2 25.8 25.5 
24757 0 5 17 25.8 27.5 
26665 0 5 20.3 26.9 29.5 
1408 0 5 18.1 30.2 1.5 
2312 0 5 19.2 31.3 2.5 
5067 0 5 20.3 29.1 5.5 
6813 0 5 19.2 30.2 7.5 
6751 0 5 17 32.4 7.5 
7770 0 5 20.3 32.4 8.5 
8609 0 5 18.1 31.3 9.5 
9569 0 5 20.3 31.3 10.5 
10529 0 5 22.5 31.3 11.5 
14127 0 5 22.5 29.1 15.5 
14069 0 5 20.3 31.3 15.5 
14967 0 5 20.3 29.1 16.5 
15813 0 5 19.2 30.2 17.5 
15928 0 5 22.5 30.2 17.5 
16829 0 5 22.5 31.3 18.5 
17552 0 5 17 31.3 19.5 
18507 0 5 18.1 29.1 20.5 
18572 0 5 21.4 31.3 20.5 
19354 0 5 17 29.1 21.5 
19414 0 5 19.2 29.1 21.5 
19412 0 5 19.2 31.3 21.5 
20309 0 5 18.1 31.3 22.5 
20372 0 5 21.4 31.3 22.5 
20430 0 5 22.5 32.4 22.5 
23009 0 5 18.1 31.3 25.5 
24930 0 5 22.5 32.4 27.5 
26611 0 5 19.2 32.4 29.5 
1559 0 5 23.6 1.6 1.5 
6121 0 5 26.9 0.5 6.5 
6065 0 5 24.7 4.9 6.5 
6957 0 5 23.6 3.8 7.5 
7024 0 5 26.9 3.8 7.5 
7860 0 5 23.6 0.5 8.5 
10677 0 5 28 3.8 11.5 
11464 0 5 24.7 3.8 12.5 
14161 0 5 24.7 0.5 15.5 
14221 0 5 26.9 0.5 15.5 
14157 0 5 23.6 3.8 15.5 
16978 0 5 28 2.7 18.5 
18659 0 5 23.6 1.6 20.5 
19680 0 5 28 0.5 21.5 
24180 0 5 28 0.5 26.5 
24122 0 5 26.9 1.6 26.5 
24063 0 5 24.7 2.7 26.5 
24057 0 5 23.6 3.8 26.5 
26820 0 5 25.8 0.5 29.5 
3472 0 5 28 9.3 3.5 
4268 0 5 24.7 8.2 4.5 
4329 0 5 26.9 9.3 4.5 
4311 0 5 25.8 10.4 4.5 
4330 0 5 26.9 10.4 4.5 
6955 0 5 23.6 6 7.5 
6966 0 5 24.7 6 7.5 
7014 0 5 25.8 7.1 7.5 
6968 0 5 24.7 8.2 7.5 
7854 0 5 23.6 7.1 8.5 
8753 0 5 23.6 8.2 9.5 
8873 0 5 28 8.2 9.5 
10673 0 5 28 8.2 11.5 
14168 0 5 24.7 8.2 15.5 
14272 0 5 28 9.3 15.5 
16975 0 5 28 6 18.5 
17815 0 5 25.8 6 19.5 
18730 0 5 26.9 10.4 20.5 
19615 0 5 25.8 6 21.5 
19675 0 5 28 6 21.5 
22373 0 5 28 8.2 24.5 
23214 0 5 25.8 7.1 25.5 
24955 0 5 23.6 6 27.5 
26828 0 5 26.9 8.2 29.5 
26872 0 5 28 9.3 29.5 
672 0 5 24.7 12.6 0.5 
734 0 5 26.9 14.8 0.5 
1610 0 5 25.8 11.5 1.5 
1666 0 5 28 15.9 1.5 
3410 0 5 25.8 11.5 3.5 
3408 0 5 25.8 13.7 3.5 
4306 0 5 25.8 15.9 4.5 
6072 0 5 24.7 12.6 6.5 
7033 0 5 26.9 13.7 7.5 
7934 0 5 26.9 14.8 8.5 
8807 0 5 25.8 14.8 9.5 
8866 0 5 28 15.9 9.5 
9707 0 5 25.8 14.8 10.5 
11448 0 5 23.6 13.7 12.5 
11568 0 5 28 13.7 12.5 
12371 0 5 24.7 11.5 13.5 
12373 0 5 24.7 13.7 13.5 
18672 0 5 24.7 12.6 20.5 
20568 0 5 28 13.7 22.5 
21468 0 5 28 13.7 23.5 
21346 0 5 23.6 15.9 23.5 
22274 0 5 24.7 14.8 24.5 
23146 0 5 23.6 15.9 25.5 
25849 0 5 23.6 12.6 28.5 
677 0 5 24.7 18.1 0.5 
738 0 5 26.9 19.2 0.5 
1662 0 5 28 20.3 1.5 
2505 0 5 25.8 17 2.5 
2536 0 5 26.9 17 2.5 
3342 0 5 23.6 20.3 3.5 
4278 0 5 24.7 19.2 4.5 
6140 0 5 26.9 21.4 6.5 
7036 0 5 26.9 17 7.5 
6977 0 5 24.7 18.1 7.5 
6943 0 5 23.6 19.2 7.5 
7063 0 5 28 19.2 7.5 
7000 0 5 25.8 22.5 7.5 
8861 0 5 28 21.4 9.5 
9640 0 5 23.6 22.5 10.5 
12465 0 5 28 17 13.5 
12463 0 5 28 19.2 13.5 
13340 0 5 26.9 21.4 14.5 
14263 0 5 28 19.2 15.5 
15139 0 5 26.9 20.3 16.5 
18681 0 5 24.7 22.5 20.5 
20441 0 5 23.6 21.4 22.5 
20561 0 5 28 21.4 22.5 
20481 0 5 24.7 22.5 22.5 
21342 0 5 23.6 20.3 23.5 
21440 0 5 26.9 21.4 23.5 
23264 0 5 28 18.1 25.5 
25939 0 5 26.9 20.3 28.5 
25840 0 5 23.6 22.5 28.5 
26840 0 5 26.9 21.4 29.5 
26861 0 5 28 21.4 29.5 
1538 0 5 23.6 24.7 1.5 
3383 0 5 24.7 24.7 3.5 
4282 0 5 24.7 23.6 4.5 
6144 0 5 26.9 25.8 6.5 
6145 0 5 26.9 26.9 6.5 
7058 0 5 28 24.7 7.5 
7056 0 5 28 26.9 7.5 
9682 0 5 24.7 23.6 10.5 
9697 0 5 25.8 25.8 10.5 
13356 0 5 28 26.9 14.5 
14183 0 5 24.7 24.7 15.5 
15083 0 5 24.7 24.7 16.5 
15084 0 5 24.7 25.8 16.5 
15035 0 5 23.6 28 16.5 
17739 0 5 23.6 23.6 19.5 
17737 0 5 23.6 25.8 19.5 
21396 0 5 25.8 26.9 23.5 
23137 0 5 23.6 25.8 25.5 
25885 0 5 24.7 26.9 28.5 
1593 0 5 25.8 30.2 1.5 
3453 0 5 28 30.2 3.5 
7049 0 5 26.9 31.3 7.5 
7888 0 5 24.7 30.2 8.5 
9634 0 5 23.6 29.1 10.5 
10588 0 5 24.7 30.2 11.5 
11432 0 5 23.6 31.3 12.5 
14189 0 5 24.7 31.3 15.5 
15092 0 5 25.8 31.3 16.5 
15031 0 5 23.6 32.4 16.5 
18692 0 5 25.8 31.3 20.5 
20434 0 5 23.6 29.1 22.5 
20494 0 5 25.8 29.1 22.5 
23132 0 5 23.6 31.3 25.5 
25049 0 5 26.9 31.3 27.5 
25834 0 5 23.6 29.1 28.5 
25953 0 5 28 30.2 28.5 
25949 0 5 26.9 31.3 28.5 
26734 0 5 23.6 29.1 29.5 
26848 0 5 26.9 30.2 29.5 
26791 0 5 25.8 32.4 29.5 
2583 0 5 29.1 2.7 2.5 
5337 0 5 30.2 3.8 5.5 
8942 0 5 31.3 1.6 9.5 
8997 0 5 32.4 3.8 9.5 
10684 0 5 29.1 3.8 11.5 
11700 0 5 32.4 0.5 12.5 
12544 0 5 31.3 3.8 13.5 
14398 0 5 32.4 2.7 15.5 
15182 0 5 29.1 1.6 16.5 
17936 0 5 30.2 4.9 19.5 
18840 0 5 30.2 0.5 20.5 
19738 0 5 30.2 2.7 21.5 
21599 0 5 32.4 1.6 23.5 
21538 0 5 30.2 2.7 23.5 
22441 0 5 31.3 0.5 24.5 
24240 0 5 30.2 0.5 26.5 
3486 0 5 29.1 6 3.5 
4495 0 5 32.4 6 4.5 
4432 0 5 30.2 9.3 4.5 
5347 0 5 31.3 7.1 5.5 
6248 0 5 31.3 8.2 6.5 
7088 0 5 29.1 8.2 7.5 
12535 0 5 30.2 6 13.5 
12487 0 5 29.1 7.1 13.5 
12488 0 5 29.1 8.2 13.5 
19749 0 5 31.3 9.3 21.5 
21546 0 5 31.3 6 23.5 
22492 0 5 32.4 9.3 24.5 
23394 0 5 32.4 7.1 25.5 
25193 0 5 32.4 8.2 27.5 
25131 0 5 30.2 10.4 27.5 
25191 0 5 32.4 10.4 27.5 
26048 0 5 31.3 8.2 28.5 
890 0 5 32.4 11.5 0.5 
1754 0 5 31.3 14.8 1.5 
4429 0 5 30.2 12.6 4.5 
5354 0 5 31.3 14.8 5.5 
6255 0 5 31.3 15.9 6.5 
8952 0 5 31.3 12.6 9.5 
11591 0 5 29.1 11.5 12.5 
11626 0 5 30.2 15.9 12.5 
12528 0 5 30.2 13.7 13.5 
15230 0 5 30.2 11.5 16.5 
15226 0 5 30.2 15.9 16.5 
16094 0 5 29.1 14.8 17.5 
17029 0 5 30.2 12.6 18.5 
17052 0 5 31.3 12.6 18.5 
17026 0 5 30.2 15.9 18.5 
18830 0 5 30.2 11.5 20.5 
19691 0 5 29.1 11.5 21.5 
19751 0 5 31.3 11.5 21.5 
19754 0 5 31.3 14.8 21.5 
20630 0 5 30.2 11.5 22.5 
20655 0 5 31.3 15.9 22.5 
21551 0 5 31.3 11.5 23.5 
21528 0 5 30.2 13.7 23.5 
21588 0 5 32.4 13.7 23.5 
22391 0 5 29.1 11.5 24.5 
22488 0 5 32.4 13.7 24.5 
23390 0 5 32.4 11.5 25.5 
24251 0 5 31.3 11.5 26.5 
25154 0 5 31.3 14.8 27.5 
824 0 5 30.2 18.1 0.5 
3560 0 5 31.3 21.4 3.5 
4456 0 5 31.3 17 4.5 
4424 0 5 30.2 18.1 4.5 
5356 0 5 31.3 17 5.5 
5321 0 5 30.2 21.4 5.5 
6196 0 5 29.1 17 6.5 
7098 0 5 29.1 19.2 7.5 
7101 0 5 29.1 22.5 7.5 
8059 0 5 31.3 20.3 8.5 
8924 0 5 30.2 18.1 9.5 
8980 0 5 32.4 22.5 9.5 
9797 0 5 29.1 18.1 10.5 
10783 0 5 32.4 19.2 11.5 
11601 0 5 29.1 22.5 12.5 
12584 0 5 32.4 18.1 13.5 
12498 0 5 29.1 19.2 13.5 
13422 0 5 30.2 20.3 14.5 
14321 0 5 30.2 21.4 15.5 
15256 0 5 31.3 17 16.5 
16097 0 5 29.1 18.1 17.5 
16098 0 5 29.1 19.2 17.5 
18857 0 5 31.3 18.1 20.5 
18798 0 5 29.1 19.2 20.5 
20624 0 5 30.2 18.1 22.5 
21499 0 5 29.1 20.3 23.5 
21500 0 5 29.1 21.4 23.5 
22396 0 5 29.1 17 24.5 
22484 0 5 32.4 18.1 24.5 
24257 0 5 31.3 18.1 26.5 
24258 0 5 31.3 19.2 26.5 
26900 0 5 29.1 21.4 29.5 
26960 0 5 31.3 21.4 29.5 
818 0 5 30.2 24.7 0.5 
2666 0 5 31.3 28 2.5 
7118 0 5 30.2 24.7 7.5 
7105 0 5 29.1 26.9 7.5 
8916 0 5 30.2 26.9 9.5 
9876 0 5 32.4 26.9 10.5 
12517 0 5 30.2 25.8 13.5 
13479 0 5 32.4 23.6 14.5 
13403 0 5 29.1 24.7 14.5 
13417 0 5 30.2 25.8 14.5 
18804 0 5 29.1 25.8 20.5 
22405 0 5 29.1 26.9 24.5 
22406 0 5 29.1 28 24.5 
25177 0 5 32.4 25.8 27.5 
26916 0 5 30.2 26.9 29.5 
1767 0 5 31.3 29.1 1.5 
5313 0 5 30.2 30.2 5.5 
5311 0 5 30.2 32.4 5.5 
8007 0 5 29.1 29.1 8.5 
8014 0 5 30.2 29.1 8.5 
8070 0 5 31.3 32.4 8.5 
9807 0 5 29.1 29.1 10.5 
10709 0 5 29.1 31.3 11.5 
10772 0 5 32.4 31.3 11.5 
13473 0 5 32.4 30.2 14.5 
14314 0 5 30.2 29.1 15.5 
16111 0 5 30.2 32.4 17.5 
18814 0 5 30.2 29.1 20.5 
18808 0 5 29.1 30.2 20.5 
21507 0 5 29.1 29.1 23.5 
21567 0 5 31.3 29.1 23.5 
23373 0 5 32.4 30.2 25.5 
23312 0 5 30.2 31.3 25.5 
24210 0 5 29.1 32.4 26.5 
25170 0 5 31.3 32.4 27.5 
ITEM: TIMESTEP
100000
ITEM: NUMBER OF ATOMS
950
ITEM: BOX BOUNDS pp pp pp
0.0000000000000000e+00 3.4000000000000000e+01
0.0000000000000000e+00 3.4000000000000000e+01
0.0000000000000000e+00 3.4000000000000000e+01
ITEM: ATOMS id mol type x y z 
26344 0 5 5.60855 4.91921 0.147834 
21599 0 5 0.720635 5.67842 4.79829 
7227 0 5 1.98975 4.56926 9.70519 
11764 0 5 0.665955 5.30128 15.5708 
9160 0 5 3.99463 1.97285 12.601 
11700 0 5 1.50097 0.160296 13.3698 
12488 0 5 1.37669 1.47222 13.7243 
18178 0 5 4.91212 0.0242405 20.1 
17195 0 5 0.368112 4.62881 17.114 
8997 0 5 0.277695 2.28677 17.2642 
11591 0 5 0.898172 4.32227 18.1921 
14465 0 5 3.85697 3.92474 19.6709 
8014 0 5 4.85921 4.16494 19.0019 
14314 0 5 2.20072 2.84788 20.9701 
23510 0 5 0.601535 3.57624 22.5894 
13714 0 5 5.11413 2.70226 23.4217 
21784 0 5 1.11638 1.00947 26.7708 
16437 0 5 5.54753 2.2459 24.9381 
4588 0 5 1.4908 1.72646 27.5078 
26212 0 5 3.08601 1.01851 29.6143 
26448 0 5 4.77779 5.37176 30.7863 
6516 0 5 1.8515 6.50273 1.65288 
22484 0 5 1.55675 7.51874 0.733804 
8408 0 5 5.55784 8.00428 4.65064 
9115 0 5 2.98513 10.3428 2.21783 
4928 0 5 5.09657 9.04938 2.55872 
3892 0 5 2.16447 10.9794 7.08188 
9246 0 5 4.44204 9.45754 10.6815 
8209 0 5 3.34047 7.62541 9.68234 
11765 0 5 1.62746 8.1613 11.6218 
14467 0 5 4.41196 10.7742 16.1414 
17277 0 5 2.83054 10.5284 12.8722 
12535 0 5 0.758936 9.27683 13.2156 
14406 0 5 2.13386 9.42455 14.6401 
15546 0 5 4.11831 7.36917 15.1382 
15414 0 5 3.8936 10.6213 15.179 
20655 0 5 3.0089 8.27939 22.1018 
16266 0 5 3.48504 6.15987 19.6398 
15409 0 5 0.238015 9.39962 19.445 
13690 0 5 0.782983 11.1179 19.148 
18830 0 5 5.02527 10.9243 20.9989 
21785 0 5 5.25917 8.8751 26.6239 
22492 0 5 5.56716 9.85045 26.0197 
21776 0 5 2.49676 7.17973 27.826 
51 0 5 0.0165407 8.98775 29.6669 
26264 0 5 1.73286 14.7567 0.187737 
26234 0 5 4.24825 12.3404 2.68548 
10134 0 5 4.94178 12.9165 5.54923 
9074 0 5 0.921182 16.8715 5.85523 
1940 0 5 5.17529 16.6617 6.08642 
10975 0 5 1.87045 12.6494 9.85923 
10904 0 5 3.0899 14.7619 9.56743 
4612 0 5 1.44744 12.8734 11.036 
13669 0 5 2.68967 14.6188 12.052 
17026 0 5 2.677 15.4959 13.049 
11056 0 5 5.22834 15.8444 12.4754 
15413 0 5 1.46019 11.6263 15.4733 
13637 0 5 4.50618 13.9968 15.5426 
17332 0 5 5.22148 14.111 16.4464 
17273 0 5 3.04652 14.2368 17.3195 
18052 0 5 2.32861 13.0317 17.7462 
13697 0 5 4.30921 13.8135 17.8114 
21790 0 5 2.23656 14.3472 18.2461 
23394 0 5 4.7787 15.0208 18.8107 
18009 0 5 2.97971 14.3371 19.2758 
20806 0 5 2.49206 16.7639 22.0463 
15487 0 5 5.42722 12.0376 21.6008 
21612 0 5 0.710975 15.5159 21.5899 
15230 0 5 2.11982 12.4996 24.5521 
22274 0 5 2.55132 15.57 25.8792 
23683 0 5 5.29331 16.9114 27.5315 
21832 0 5 4.98198 14.381 27.1539 
13628 0 5 4.4903 13.3623 22.9915 
23450 0 5 0.904834 14.95 28.8286 
24347 0 5 0.448684 11.7817 30.5318 
25191 0 5 4.72968 12.1496 31.0669 
890 0 5 3.16784 13.7454 30.7073 
24257 0 5 1.39096 12.5718 31.6429 
975 0 5 5.45863 18.7029 2.89567 
1275 0 5 0.560435 17.6881 1.33112 
6313 0 5 3.15788 18.203 2.00965 
2833 0 5 4.41064 17.9172 3.03359 
10783 0 5 2.17539 22.0193 4.77629 
11626 0 5 3.53873 19.5712 4.0823 
7219 0 5 3.13747 18.2129 5.99675 
12528 0 5 0.987977 17.2086 7.84628 
4700 0 5 3.99936 17.1138 9.5899 
9797 0 5 1.03211 22.216 11.0589 
16421 0 5 4.54353 19.5047 16.5146 
19847 0 5 4.86472 17.4425 18.8353 
13757 0 5 5.52507 21.5923 17.2445 
22640 0 5 4.40608 20.3087 23.1865 
21794 0 5 4.93111 21.2896 23.5835 
25306 0 5 0.97537 19.1963 27.0292 
77 0 5 4.62387 22.455 26.5034 
26117 0 5 0.0803607 18.2502 24.1299 
24341 0 5 4.26366 22.6596 25.3817 
26382 0 5 4.5164 18.9408 30.4117 
3801 0 5 5.00964 18.1279 31.428 
1904 0 5 2.37439 24.2306 1.31425 
9942 0 5 4.80022 25.0916 1.59147 
7283 0 5 1.06486 27.8957 1.77067 
25177 0 5 2.7814 24.5867 2.96778 
8980 0 5 0.0279772 24.8777 4.79918 
26143 0 5 4.1045 24.7325 4.9217 
25279 0 5 2.72603 28.0657 0.42024 
10040 0 5 4.04086 23.4342 10.1201 
14480 0 5 3.05782 22.8128 16.2684 
13640 0 5 2.83336 25.2499 13.8455 
14534 0 5 4.10792 25.5922 15.6461 
16357 0 5 -0.0146003 24.6204 14.7368 
17194 0 5 0.450021 27.5878 16.6529 
20722 0 5 0.0802686 26.1659 22.23 
18099 0 5 1.05396 24.3658 17.4417 
19882 0 5 2.86512 24.5815 20.2948 
20856 0 5 5.05366 26.0387 21.6984 
23373 0 5 1.33312 23.1251 22.5777 
25359 0 5 1.97083 23.9885 29.352 
6381 0 5 0.313122 28.7153 4.31651 
6403 0 5 1.68532 30.496 1.78094 
217 0 5 3.18234 28.3339 2.69852 
9876 0 5 5.55943 31.8767 9.46724 
13681 0 5 5.14885 29.1111 15.7852 
10831 0 5 1.26567 33.4868 15.2139 
22650 0 5 5.4207 28.4535 25.822 
19888 0 5 1.0222 31.67 22.7527 
22441 0 5 1.52312 29.8373 25.6376 
22406 0 5 1.10075 33.9424 25.0187 
24377 0 5 0.692914 31.9209 25.8243 
23487 0 5 5.49258 30.5918 26.6176 
22653 0 5 1.61863 29.0661 28.2536 
26245 0 5 5.39218 29.471 26.6702 
18093 0 5 2.40818 28.4659 25.3034 
3718 0 5 0.362672 32.8459 26.6871 
25330 0 5 5.17064 33.7181 27.8726 
22659 0 5 2.81302 28.6459 27.7733 
24329 0 5 3.53229 29.8042 27.8424 
23636 0 5 2.09003 31.3553 28.765 
1051 0 5 2.90142 31.5867 29.6373 
26339 0 5 4.57426 30.3952 30.5252 
963 0 5 2.72778 31.9686 32.2037 
24393 0 5 3.66263 32.5762 31.406 
3618 0 5 2.40889 30.6297 32.7266 
5547 0 5 4.09574 32.575 32.6925 
6668 0 5 10.7598 0.619758 3.47015 
25531 0 5 7.37481 0.491975 5.38187 
2856 0 5 9.59074 2.51807 0.0114747 
5667 0 5 11.2448 3.71564 3.47829 
4502 0 5 7.85764 4.53361 6.90301 
7435 0 5 8.17566 1.01134 7.85706 
9174 0 5 7.18077 4.76608 7.96883 
11223 0 5 9.08851 0.777679 8.71773 
3811 0 5 10.9805 5.38624 9.3169 
7442 0 5 10.146 2.69285 10.9373 
6544 0 5 10.6527 0.301728 12.5179 
7501 0 5 11.1493 0.497576 13.556 
10888 0 5 10.1136 0.742617 15.1469 
17552 0 5 6.74338 4.50219 15.2688 
23516 0 5 8.99561 1.69513 22.3775 
10203 0 5 9.03885 4.49088 17.8923 
15547 0 5 10.4408 3.5017 19.5309 
10986 0 5 7.45374 3.31737 17.2913 
23768 0 5 7.76115 4.21682 22.6586 
20074 0 5 7.25203 2.08846 23.3972 
21180 0 5 9.01629 3.17135 25.1719 
1886 0 5 10.8922 3.02453 26.2369 
25327 0 5 6.97537 1.84123 27.1387 
20102 0 5 7.73703 3.90419 27.0675 
5548 0 5 10.6981 2.25587 28.4395 
3984 0 5 5.71257 1.76294 30.4542 
1853 0 5 6.34264 3.83861 33.7455 
5755 0 5 10.3021 9.66983 5.29871 
2952 0 5 11.2368 10.5689 2.47226 
2092 0 5 7.57969 6.18911 2.94562 
4691 0 5 11.3132 5.73819 4.93317 
14730 0 5 8.52254 9.9027 10.653 
4807 0 5 6.26092 6.89273 6.80455 
9011 0 5 8.84709 6.12225 8.29125 
7566 0 5 6.88921 7.20961 7.74943 
5769 0 5 9.13002 9.78105 11.588 
16541 0 5 6.76897 9.36033 21.7505 
20050 0 5 7.73578 9.59376 21.6794 
24548 0 5 10.1849 8.85468 24.8652 
24429 0 5 8.15056 8.54558 25.9697 
21905 0 5 5.68445 6.15069 23.7796 