LAMMPS (3 Mar 2020)
OMP_NUM_THREADS environment is not set. Defaulting to 1 thread. (src/comm.cpp:94)
  using 1 OpenMP thread(s) per MPI task
Reading restart file ...
  restart file = 3 Mar 2020, LAMMPS = 3 Mar 2020
  restoring atom style full from restart
  orthogonal box = (0.575609 0.575609 0.575609) to (33.4244 33.4244 33.4244)
  6 by 6 by 6 MPI processor grid
  restoring pair style hybrid/overlay from restart
  restoring bond style fene from restart
  28900 atoms
  8700 bonds
Finding 1-2 1-3 1-4 neighbors ...
  special bond factors lj:   0          1          1         
  special bond factors coul: 0          1          1         
  2 = max # of 1-2 neighbors
  6 = max # of special neighbors
  special bonds CPU = 2.47875 secs
  read_restart CPU = 2.65256 secs
Resetting global fix info from restart file:
  fix style: nvt, fix ID: pt
100 rigid bodies with 1900 atoms
Resetting global fix info from restart file:
  fix style: rigid/nvt, fix ID: ri
System init for write_data ...
PPPM initialization ...
  using 12-bit tables for long-range coulomb (src/kspace.cpp:332)
  G vector (1/distance) = 1.14614
  grid = 90 90 90
  stencil order = 5
  estimated absolute RMS force accuracy = 0.000111057
  estimated relative force accuracy = 0.000111057
  using double precision FFTW3
  3d grid and FFT values/proc = 8000 3600
All restart file global fix info was re-assigned
Unused restart file peratom fix info:
  fix style: STORE, fix ID: par_COMPUTE_STORE
WARNING: Neighbor exclusions used with KSpace solver may give inconsistent Coulombic energies (src/neighbor.cpp:486)
Neighbor list info ...
  update every 1 steps, delay 0 steps, check yes
  max neighbors/atom: 2000, page size: 100000
  master list distance cutoff = 2.8
  ghost atom cutoff = 2.8
  binsize = 1.4, bins = 24 24 24
  2 neighbor lists, perpetual/occasional/extra = 2 0 0
  (1) pair lj/cut, perpetual
      attributes: half, newton on
      pair build: half/bin/newton
      stencil: half/bin/3d/newton
      bin: standard
  (2) pair coul/long, perpetual, skip from (1)
      attributes: half, newton on
      pair build: skip
      stencil: none
      bin: none
PPPM initialization ...
  using 12-bit tables for long-range coulomb (src/kspace.cpp:332)
  G vector (1/distance) = 1.14614
  grid = 90 90 90
  stencil order = 5
  estimated absolute RMS force accuracy = 0.000111057
  estimated relative force accuracy = 0.000111057
  using double precision FFTW3
  3d grid and FFT values/proc = 8000 3600
WARNING: Neighbor exclusions used with KSpace solver may give inconsistent Coulombic energies (src/neighbor.cpp:486)
Neighbor list info ...
  update every 1 steps, delay 0 steps, check yes
  max neighbors/atom: 2000, page size: 100000
  master list distance cutoff = 2.8
  ghost atom cutoff = 2.8
  binsize = 1.4, bins = 24 24 24
  2 neighbor lists, perpetual/occasional/extra = 2 0 0
  (1) pair lj/cut, perpetual
      attributes: half, newton on
      pair build: half/bin/newton
      stencil: half/bin/3d/newton
      bin: standard
  (2) pair coul/long, perpetual, skip from (1)
      attributes: half, newton on
      pair build: skip
      stencil: none
      bin: none
Setting up Verlet run ...
  Unit style    : lj
  Current step  : 12000000
  Time step     : 0.005
Per MPI rank memory allocation (min/avg/max) = 10.14 | 10.17 | 10.29 Mbytes
Step Temp Press Volume 
12000000   0.79632465  -0.29435917    35445.234 
12010000   0.79292201  -0.22842637    35445.234 
12020000   0.79895192  -0.29726629    35445.234 
12030000   0.79415214  -0.31096891    35445.234 
12040000   0.79856464   -0.2485498    35445.234 
12050000    0.7999579  -0.29143498    35445.234 
12060000   0.79846446  -0.29824601    35445.234 
12070000   0.80488547  -0.27633944    35445.234 
12080000   0.79791983  -0.23375897    35445.234 
12090000   0.80410437  -0.30170923    35445.234 
12100000   0.80204991  -0.26581441    35445.234 
12110000   0.80272813  -0.24532646    35445.234 
12120000     0.799578  -0.23285555    35445.234 
12130000   0.80487347  -0.26075431    35445.234 
12140000   0.79945452  -0.28781002    35445.234 
12150000   0.80005331  -0.28304265    35445.234 
12160000     0.798713  -0.29776877    35445.234 
12170000   0.80106136  -0.31296851    35445.234 
12180000   0.80397081  -0.30396912    35445.234 
12190000   0.80393165  -0.28754468    35445.234 
12200000   0.80332169  -0.26431739    35445.234 
12210000    0.8016978  -0.33413272    35445.234 
12220000   0.80004619  -0.26485228    35445.234 
12230000   0.79201142  -0.26687759    35445.234 
12240000   0.79664131  -0.24859997    35445.234 
12250000   0.80129883  -0.26851164    35445.234 
12260000    0.8041105  -0.26176185    35445.234 
12270000   0.80444892  -0.31340095    35445.234 
12280000   0.80636554  -0.29829806    35445.234 
12290000   0.79420294  -0.35942271    35445.234 
12300000    0.8079004  -0.28009033    35445.234 
12310000   0.80509417   -0.3005135    35445.234 
12320000   0.80573144  -0.23602105    35445.234 
12330000   0.79946687  -0.27855447    35445.234 
12340000   0.80581511  -0.23330215    35445.234 
12350000   0.80897757  -0.29777582    35445.234 
12360000   0.80256048  -0.33007922    35445.234 
12370000   0.80046553  -0.27769845    35445.234 
12380000   0.80365423  -0.29615661    35445.234 
12390000   0.79750298  -0.24255524    35445.234 
12400000   0.79880441  -0.31970937    35445.234 
12410000   0.80273498  -0.28883148    35445.234 
12420000   0.80179201  -0.28714214    35445.234 
12430000   0.80542828  -0.27730095    35445.234 
12440000   0.80370952  -0.17545736    35445.234 
12450000    0.8045426  -0.24428058    35445.234 
12460000   0.79763328  -0.27897686    35445.234 
12470000   0.79572553  -0.28369663    35445.234 
12480000   0.79855166  -0.24890028    35445.234 
12490000   0.79732395   -0.2252388    35445.234 
12500000   0.79866048  -0.25182345    35445.234 
12510000   0.80077663  -0.25284249    35445.234 
12520000   0.79549026  -0.27930511    35445.234 
12530000   0.80066737  -0.29365404    35445.234 
12540000   0.79338687  -0.27495308    35445.234 
12550000   0.80560055  -0.21696359    35445.234 
12560000   0.80526768  -0.22507542    35445.234 
12570000    0.7990999  -0.22779275    35445.234 
12580000   0.80315062  -0.27500853    35445.234 
12590000   0.80133874  -0.23081993    35445.234 
12600000   0.80080623  -0.29429915    35445.234 
12610000   0.79780048  -0.19778894    35445.234 
12620000   0.79362322  -0.31878042    35445.234 
12630000   0.80305835  -0.28055041    35445.234 
12640000   0.80233934   -0.2110688    35445.234 
12650000   0.80272367  -0.26834572    35445.234 
12660000   0.79724069  -0.33046815    35445.234 
12670000   0.80090185  -0.30243466    35445.234 
12680000    0.8013131  -0.26780827    35445.234 
12690000   0.80510825  -0.26485133    35445.234 
12700000   0.79902251  -0.21486752    35445.234 
12710000   0.79955172  -0.28945997    35445.234 
12720000   0.80467927  -0.27905623    35445.234 
12730000   0.79937197   -0.3255457    35445.234 
12740000   0.79351315  -0.25958921    35445.234 
12750000    0.8032891  -0.29512052    35445.234 
12760000    0.7968739  -0.25554891    35445.234 
12770000   0.80134566  -0.22684496    35445.234 
12780000   0.80139497  -0.26732885    35445.234 
12790000   0.79919168  -0.27031337    35445.234 
12800000   0.80380184  -0.23524082    35445.234 
12810000    0.7966013  -0.24761914    35445.234 
12820000   0.80881336  -0.25886586    35445.234 
12830000   0.80309185  -0.28623535    35445.234 
12840000   0.79918194  -0.29554399    35445.234 
12850000   0.80002849  -0.27671739    35445.234 
12860000   0.79861679  -0.30925902    35445.234 
12870000   0.80909962   -0.2501213    35445.234 
12880000   0.80153369  -0.21963141    35445.234 
12890000   0.78923928  -0.28349683    35445.234 
12900000   0.80665719  -0.24439776    35445.234 
12910000   0.79480765  -0.29772205    35445.234 
12920000   0.80145366  -0.26653621    35445.234 
12930000   0.80201297  -0.27270236    35445.234 
12940000   0.80055342  -0.30147366    35445.234 
12950000   0.79882739   -0.2308222    35445.234 
12960000   0.79198739  -0.22593993    35445.234 
12970000   0.80026843  -0.25915104    35445.234 
12980000   0.79733148  -0.26806706    35445.234 
12990000   0.80149452  -0.26779303    35445.234 
13000000   0.79822459   -0.3265506    35445.234 
Loop time of 9237.72 on 216 procs for 1000000 steps with 28900 atoms

Performance: 46764.762 tau/day, 108.252 timesteps/s
99.9% CPU use with 216 MPI tasks x 1 OpenMP threads

MPI task timing breakdown:
Section |  min time  |  avg time  |  max time  |%varavg| %total
---------------------------------------------------------------
Pair    | 88.826     | 128.25     | 202.42     | 198.9 |  1.39
Bond    | 1.103      | 2.0473     | 3.0839     |  23.0 |  0.02
Kspace  | 7963.3     | 8129.2     | 8229.3     |  66.3 | 88.00
Neigh   | 125.33     | 131.31     | 138.12     |  22.3 |  1.42
Comm    | 259.02     | 341.63     | 500.7      | 276.6 |  3.70
Output  | 0.012223   | 0.014321   | 0.026177   |   0.9 |  0.00
Modify  | 364.99     | 402.03     | 458.49     | 107.5 |  4.35
Other   |            | 103.3      |            |       |  1.12

Nlocal:    133.796 ave 202 max 107 min
Histogram: 13 54 72 35 22 12 4 2 0 2
Nghost:    972.87 ave 1089 max 866 min
Histogram: 5 15 32 27 39 38 29 12 12 7
Neighs:    4949.35 ave 9208 max 3425 min
Histogram: 25 63 50 43 14 14 2 3 1 1

Total # of neighbors = 1069060
Ave neighs/atom = 36.9917
Ave special neighs/atom = 0.602076
Neighbor list builds = 134492
Dangerous builds = 0
PPPM initialization ...
  using 12-bit tables for long-range coulomb (src/kspace.cpp:332)
  G vector (1/distance) = 1.14614
  grid = 90 90 90
  stencil order = 5
  estimated absolute RMS force accuracy = 0.000111057
  estimated relative force accuracy = 0.000111057
  using double precision FFTW3
  3d grid and FFT values/proc = 8000 3600
WARNING: Neighbor exclusions used with KSpace solver may give inconsistent Coulombic energies (src/neighbor.cpp:486)
Neighbor list info ...
  update every 1 steps, delay 0 steps, check yes
  max neighbors/atom: 2000, page size: 100000
  master list distance cutoff = 2.8
  ghost atom cutoff = 2.8
  binsize = 1.4, bins = 24 24 24
  12 neighbor lists, perpetual/occasional/extra = 2 10 0
  (1) pair lj/cut, perpetual
      attributes: half, newton on
      pair build: half/bin/newton
      stencil: half/bin/3d/newton
      bin: standard
  (2) pair coul/long, perpetual, skip from (1)
      attributes: half, newton on
      pair build: skip
      stencil: none
      bin: none
  (3) compute rdf, occasional, copy from (1)
      attributes: half, newton on
      pair build: copy
      stencil: none
      bin: none
  (4) compute rdf, occasional, copy from (1)
      attributes: half, newton on
      pair build: copy
      stencil: none
      bin: none
  (5) compute rdf, occasional, copy from (1)
      attributes: half, newton on
      pair build: copy
      stencil: none
      bin: none
  (6) compute rdf, occasional, copy from (1)
      attributes: half, newton on
      pair build: copy
      stencil: none
      bin: none
  (7) compute rdf, occasional, copy from (1)
      attributes: half, newton on
      pair build: copy
      stencil: none
      bin: none
  (8) compute rdf, occasional, copy from (1)
      attributes: half, newton on
      pair build: copy
      stencil: none
      bin: none
  (9) compute rdf, occasional, copy from (1)
      attributes: half, newton on
      pair build: copy
      stencil: none
      bin: none
  (10) compute rdf, occasional, copy from (1)
      attributes: half, newton on
      pair build: copy
      stencil: none
      bin: none
  (11) compute rdf, occasional, copy from (1)
      attributes: half, newton on
      pair build: copy
      stencil: none
      bin: none
  (12) compute rdf, occasional, copy from (1)
      attributes: half, newton on
      pair build: copy
      stencil: none
      bin: none
Setting up Verlet run ...
  Unit style    : lj
  Current step  : 0
  Time step     : 0.005
WARNING: One or more chunks do not contain all atoms in molecule (src/compute_chunk_atom.cpp:1163)
Per MPI rank memory allocation (min/avg/max) = 17.82 | 19.41 | 19.85 Mbytes
Step Temp Press PotEng KinEng E_pair E_bond TotEng 
       0   0.79822459  -0.41512807    1.4787533    1.1268639    -4.724706    6.2034594    2.6056172 
   10000   0.80913491  -0.24457594    1.4924579    1.1422661   -4.7092234    6.2016812     2.634724 
   20000   0.79867901  -0.29429894    1.4817659    1.1275054   -4.7211489    6.2029148    2.6092713 
   30000   0.79662352  -0.27128948    1.4879413    1.1246036    -4.716452    6.2043933    2.6125449 
   40000   0.80324303  -0.23383003    1.4949094    1.1339485   -4.7099675    6.2048769    2.6288579 
   50000   0.79995521  -0.24380765    1.4982267     1.129307   -4.7042128    6.2024395    2.6275337 
   60000   0.79737519  -0.25437373    1.4850403    1.1256648   -4.7183124    6.2033527     2.610705 
   70000   0.79841583  -0.29444898    1.4900777    1.1271339   -4.7116149    6.2016926    2.6172115 
   80000   0.79837942  -0.25203645     1.492533    1.1270824   -4.7097972    6.2023301    2.6196154 
   90000   0.79473529   -0.2679284    1.4902369     1.121938   -4.7126651     6.202902    2.6121749 
  100000   0.79710944  -0.28173117    1.4876558    1.1252896   -4.7143597    6.2020154    2.6129454 
  110000   0.79437072  -0.29234826    1.4866978    1.1214233   -4.7187912     6.205489    2.6081211 
  120000    0.7919055  -0.32153887     1.484655    1.1179431   -4.7189189    6.2035739    2.6025982 
  130000   0.79653448  -0.29331628    1.4841937    1.1244779   -4.7169724     6.201166    2.6086716 
  140000   0.80222936  -0.26876895    1.4882976    1.1325175   -4.7173656    6.2056632     2.620815 
  150000   0.80120589  -0.26919373    1.4835071    1.1310726   -4.7174954    6.2010025    2.6145797 
  160000   0.81105304  -0.27696741    1.4856158     1.144974   -4.7171499    6.2027657    2.6305897 
  170000   0.79737296  -0.26977951    1.4912496    1.1256616   -4.7116941    6.2029438    2.6169113 
  180000   0.79956879  -0.30407873    1.4963179    1.1287615    -4.707772    6.2040899    2.6250794 
  190000   0.80538101    -0.265855    1.4881037    1.1369667   -4.7144428    6.2025464    2.6250703 
  200000      0.79726  -0.31904138    1.4912518    1.1255021   -4.7141274    6.2053792    2.6167539 
  210000   0.80082508   -0.3396493    1.4900558     1.130535   -4.7139729    6.2040286    2.6205908 
  220000   0.80032744  -0.24554313    1.4954706    1.1298325   -4.7082997    6.2037703    2.6253031 
  230000   0.80017947   -0.1986758    1.4978301    1.1296236   -4.7050903    6.2029204    2.6274537 
  240000   0.79281035  -0.20445105    1.4917833    1.1192205   -4.7113056    6.2030889    2.6110038 
  250000   0.80054398  -0.29358583    1.4793748    1.1301382   -4.7259452      6.20532     2.609513 
  260000   0.79924009  -0.23001433    1.4929431    1.1282975   -4.7133256    6.2062687    2.6212406 
  270000   0.80460172  -0.23322862    1.4880779    1.1358666     -4.71732    6.2053979    2.6239444 
  280000   0.79813952  -0.28057561    1.4879462    1.1267438   -4.7167312    6.2046774      2.61469 
  290000   0.79288903  -0.24632361    1.4932769    1.1193316   -4.7120439    6.2053208    2.6126085 
  300000   0.79983621  -0.21482574    1.4824566     1.129139   -4.7195153    6.2019719    2.6115956 
  310000   0.80613211  -0.28605766    1.4904925     1.138027   -4.7169429    6.2074354    2.6285195 
  320000   0.80356926  -0.29949972    1.4792976     1.134409   -4.7213468    6.2006444    2.6137066 
  330000   0.80258684  -0.30349974    1.4770095    1.1330221   -4.7263271    6.2033366    2.6100316 
  340000   0.80095429   -0.2307517    1.4840602    1.1307174   -4.7182307    6.2022909    2.6147776 
  350000   0.80220656  -0.19402064    1.4803635    1.1324853   -4.7235509    6.2039144    2.6128487 
  360000   0.80390631  -0.29679793    1.4881984    1.1348848    -4.714299    6.2024974    2.6230833 
  370000   0.79249612  -0.23907719    1.4878888    1.1187769   -4.7174486    6.2053374    2.6066657 
  380000   0.80355683  -0.30760141    1.4839047    1.1343915   -4.7204319    6.2043366    2.6182962 
  390000    0.8017012  -0.29193116    1.4874822    1.1317718    -4.716934    6.2044163    2.6192541 
  400000    0.8003602  -0.33236949    1.4845186    1.1298787   -4.7182351    6.2027537    2.6143973 
  410000   0.80561016  -0.27832919    1.4840935    1.1372902   -4.7194011    6.2034946    2.6213837 
  420000   0.80353859  -0.23279765    1.4955969    1.1343657   -4.7100692    6.2056661    2.6299626 
  430000    0.8018314   -0.3257647    1.4821683    1.1319556   -4.7222909    6.2044591    2.6141239 
  440000      0.80595  -0.24447545    1.4890008    1.1377699   -4.7163459    6.2053466    2.6267707 
  450000   0.80332982  -0.27790217    1.4878182     1.134071   -4.7157777    6.2035958    2.6218892 
  460000   0.80018644  -0.23678508    1.4841436    1.1296334   -4.7181087    6.2022523    2.6137771 
  470000   0.79784872   -0.3259872    1.4998686    1.1263333   -4.7042356    6.2041042    2.6262019 
  480000   0.80176294  -0.29410383    1.4867103     1.131859    -4.715675    6.2023852    2.6185693 
  490000   0.79503055  -0.27150203    1.4831033    1.1223548   -4.7204161    6.2035195    2.6054581 
  500000   0.79775266  -0.28179029    1.4786075    1.1261977   -4.7218313    6.2004388    2.6048051 
  510000   0.79668952  -0.21074759    1.4952467    1.1246968   -4.7076288    6.2028755    2.6199435 
  520000   0.80250583  -0.27038632    1.4885213    1.1329078   -4.7128407     6.201362    2.6214291 
  530000   0.79978315  -0.25685627    1.4785644    1.1290641   -4.7225919    6.2011563    2.6076285 
  540000   0.79983312  -0.25233342    1.4822796    1.1291347   -4.7174072    6.1996868    2.6114142 
  550000   0.79551509  -0.21834657    1.4892314    1.1230388   -4.7176804    6.2069117    2.6122702 
  560000   0.79871656  -0.33723323    1.4806077    1.1275584   -4.7221181    6.2027258    2.6081661 
  570000   0.80072037  -0.26690704    1.4972841    1.1303872   -4.7075034    6.2047876    2.6276713 
  580000   0.80238359  -0.19182205    1.4941168    1.1327352   -4.7110365    6.2051533    2.6268519 
  590000   0.79877589  -0.20467752    1.4852698    1.1276422    -4.717663    6.2029328    2.6129119 
  600000   0.79729118  -0.25135417    1.4923932    1.1255462   -4.7127982    6.2051914    2.6179394 
  610000   0.80017256   -0.2557801    1.4884554    1.1296138   -4.7146209    6.2030763    2.6180692 
  620000   0.79795573  -0.30575488    1.4872554    1.1264843   -4.7191382    6.2063937    2.6137398 
  630000   0.80184539  -0.25189478    1.4843847    1.1319754   -4.7206182    6.2050029    2.6163601 
  640000   0.80259895   -0.2676762    1.4854689    1.1330392   -4.7197648    6.2052337    2.6185081 
  650000   0.80083174  -0.27445385    1.4863987    1.1305444   -4.7137525    6.2001513    2.6169432 
  660000    0.8013563  -0.18777677    1.4965264    1.1312849   -4.7058081    6.2023345    2.6278114 
  670000   0.80204527  -0.27996624    1.4771545    1.1322576   -4.7226344     6.199789    2.6094121 
  680000   0.79802371  -0.27849117    1.4890297    1.1265803   -4.7140769    6.2031066      2.61561 
  690000   0.79289584  -0.31382852    1.4797581    1.1193412   -4.7249249     6.204683    2.5990993 
  700000   0.80162639  -0.21904665    1.4947241    1.1316662   -4.7099758    6.2046998    2.6263903 
  710000   0.80011164  -0.21033288    1.4947848    1.1295278     -4.70729    6.2020747    2.6243126 
  720000   0.80074892  -0.32050119    1.4865498    1.1304275   -4.7173198    6.2038696    2.6169773 
  730000   0.80217201  -0.28268174    1.4872478    1.1324365   -4.7149759    6.2022237    2.6196843 
  740000    0.7975756  -0.24815825    1.4833954    1.1259477   -4.7197572    6.2031526    2.6093431 
  750000   0.80280035    -0.269875    1.4879455    1.1333235   -4.7176878    6.2056333     2.621269 
  760000   0.79780542   -0.3066601    1.4886965    1.1262721   -4.7138265     6.202523    2.6149686 
  770000   0.80103143  -0.31383936    1.4848378    1.1308263   -4.7169318    6.2017696    2.6156641 
  780000   0.79974953  -0.28449899     1.492266    1.1290166   -4.7096754    6.2019414    2.6212827 
  790000    0.8013127  -0.27241497    1.4877242    1.1312234   -4.7209968    6.2087211    2.6189476 
  800000   0.80462832  -0.31225342    1.4824283    1.1359041   -4.7188749    6.2013031    2.6183324 
  810000   0.80299847  -0.24660839    1.4912445    1.1336032   -4.7164951    6.2077396    2.6248477 
  820000   0.79741014  -0.28789967    1.4822767    1.1257141    -4.719457    6.2017337    2.6079908 
  830000   0.80493412  -0.27062766    1.4921178    1.1363358   -4.7134769    6.2055947    2.6284536 
  840000   0.80183995  -0.24961527    1.4849979    1.1319677   -4.7203489    6.2053468    2.6169656 
  850000    0.8049229  -0.26130703    1.4807024      1.13632   -4.7203599    6.2010622    2.6170223 
  860000   0.80006914  -0.27680583    1.4826861    1.1294679   -4.7195455    6.2022317     2.612154 
  870000    0.8049372  -0.31393769    1.4859017    1.1363401    -4.718234    6.2041357    2.6222419 
  880000   0.80577399  -0.29065265    1.4780613    1.1375215   -4.7216394    6.1997007    2.6155828 
  890000   0.80865021  -0.27832767    1.4796431    1.1415819    -4.723104    6.2027471    2.6212249 
  900000   0.80344366  -0.34770705    1.4839275    1.1342317   -4.7186806    6.2026081    2.6181592 
  910000   0.80315369  -0.35771042    1.4835756    1.1338223   -4.7185745      6.20215    2.6173979 
  920000   0.79952661  -0.24257234    1.4917579     1.128702   -4.7115038    6.2032617    2.6204598 
  930000   0.80349413  -0.16958281    1.4948568     1.134303   -4.7087471    6.2036039    2.6291598 
  940000   0.80607524  -0.24737318    1.4926108    1.1379467   -4.7115691    6.2041798    2.6305575 
  950000   0.79938502  -0.28193138    1.4889634    1.1285021   -4.7168267    6.2057901    2.6174654 
  960000   0.80118256  -0.24093967    1.4966768    1.1310397   -4.7083562     6.205033    2.6277164 
  970000   0.80041499  -0.24890889      1.48368    1.1299561   -4.7212389    6.2049189    2.6136361 
  980000   0.80107617  -0.22933141    1.4878916    1.1308895   -4.7135003    6.2013919    2.6187811 
  990000   0.80042498  -0.31777198    1.4865634    1.1299702   -4.7197761    6.2063395    2.6165336 
 1000000   0.79781995  -0.30637074     1.491916    1.1262926   -4.7164404    6.2083564    2.6182087 
 1010000   0.79940958  -0.25741025    1.4954416    1.1285367    -4.711955    6.2073965    2.6239783 
 1020000   0.79428796  -0.27480716    1.4854966    1.1213065   -4.7178431    6.2033397    2.6068031 
 1030000   0.80200121  -0.27881512    1.4752908    1.1321954    -4.723844    6.1991348    2.6074862 
 1040000   0.79848613  -0.26219887    1.4933859    1.1272331   -4.7077384    6.2011243     2.620619 
 1050000   0.80405623  -0.30143675    1.4762334    1.1350965   -4.7237529    6.1999864    2.6113299 
 1060000     0.801328  -0.22646761    1.4831135     1.131245   -4.7185212    6.2016347    2.6143585 
 1070000   0.79935281  -0.23988798    1.4949863    1.1284566   -4.7109162    6.2059025    2.6234429 
 1080000   0.79531652  -0.25333942    1.4816879    1.1227585   -4.7188828    6.2005707    2.6044464 
 1090000   0.79683479  -0.25210987    1.4905553    1.1249019   -4.7118853    6.2024406    2.6154572 
 1100000   0.79486821  -0.29795649    1.4888713    1.1221256   -4.7159868    6.2048581    2.6109969 
 1110000    0.7937391  -0.28414496     1.485469    1.1205317   -4.7166374    6.2021064    2.6060006 
 1120000   0.79862217  -0.28503132    1.4885843    1.1274251   -4.7136729    6.2022572    2.6160094 
 1130000   0.80085611  -0.29029714    1.4870834    1.1305788   -4.7165096     6.203593    2.6176622 
 1140000   0.80139147  -0.28704736    1.4832262    1.1313346   -4.7192655    6.2024918    2.6145608 
 1150000   0.80046966  -0.31481958    1.4822922    1.1300333   -4.7181832    6.2004753    2.6123254 
 1160000    0.7957549  -0.25383854    1.4831691    1.1233774   -4.7183506    6.2015196    2.6065465 
 1170000     0.803281  -0.31001777    1.4850544    1.1340021   -4.7208864    6.2059408    2.6190565 
 1180000   0.79994248  -0.31521401     1.482068     1.129289   -4.7202832    6.2023512    2.6113571 
 1190000   0.80395485  -0.29843988    1.4813519    1.1349534   -4.7204723    6.2018242    2.6163053 
 1200000   0.80558925  -0.23303702    1.4800117    1.1372607   -4.7235149    6.2035265    2.6172723 
 1210000   0.80292375  -0.29620122    1.4856965    1.1334977   -4.7200968    6.2057933    2.6191942 
 1220000   0.79618406  -0.25695091    1.4892273    1.1239832    -4.713276    6.2025033    2.6132106 
 1230000   0.79725051  -0.27792066    1.4858255    1.1254888   -4.7191498    6.2049753    2.6113142 
 1240000   0.79293688  -0.26646517    1.4874464    1.1193991   -4.7158504    6.2032969    2.6068456 
 1250000    0.8021207  -0.24599124    1.4883737    1.1323641     -4.71509    6.2034637    2.6207377 
 1260000   0.80068522  -0.21346088    1.4933743    1.1303376   -4.7100918    6.2034661    2.6237119 
 1270000   0.80476655  -0.26035023    1.4867279    1.1360992    -4.718189    6.2049169    2.6228272 
 1280000   0.79840808  -0.29428838    1.4949232    1.1271229   -4.7087534    6.2036766    2.6220461 
 1290000   0.79668293  -0.31310296    1.4864488    1.1246875   -4.7179967    6.2044454    2.6111363 
 1300000   0.79759972   -0.3024969     1.486694    1.1259817   -4.7163453    6.2030393    2.6126757 
 1310000   0.79380535  -0.30669623    1.4847437    1.1206252   -4.7185785    6.2033222    2.6053689 
 1320000   0.80001792  -0.25993295    1.4956897    1.1293955   -4.7093353     6.205025    2.6250852 
 1330000   0.79175853    -0.262574    1.4895633    1.1177357   -4.7137186    6.2032819    2.6072989 
 1340000   0.79805001  -0.28090042     1.484849    1.1266174   -4.7167049    6.2015539    2.6114664 
 1350000   0.80081197  -0.29712084    1.4853237    1.1305165   -4.7161645    6.2014882    2.6158402 
 1360000   0.79997455  -0.33731108    1.4778065    1.1293343   -4.7249943    6.2028008    2.6071408 
 1370000   0.80049054  -0.22471202    1.4857829    1.1300627   -4.7170636    6.2028465    2.6158456 
 1380000   0.80173895  -0.32164899    1.4873878    1.1318251     -4.71561    6.2029978    2.6192129 
 1390000   0.80146921  -0.27193641    1.4791033    1.1314443   -4.7254923    6.2045956    2.6105476 
 1400000   0.79932064  -0.26919292    1.4840443    1.1284112   -4.7204409    6.2044852    2.6124555 
 1410000   0.80273523    -0.291711    1.4774205    1.1332316   -4.7241962    6.2016166    2.6106521 
 1420000   0.80508839   -0.2770115    1.4805373    1.1365536   -4.7218733    6.2024107    2.6170909 
 1430000   0.80536591   -0.2518413    1.4827919    1.1369454   -4.7172232    6.2000151    2.6197373 
 1440000   0.80479973  -0.26708322    1.4757218    1.1361461   -4.7261282      6.20185    2.6118679 
 1450000   0.79734978  -0.27429427     1.483804    1.1256289    -4.718232     6.202036    2.6094328 
 1460000   0.79688636   -0.2192896    1.4935733    1.1249747   -4.7107326    6.2043059     2.618548 
 1470000   0.79719062  -0.29064225    1.4825704    1.1254042   -4.7198459    6.2024162    2.6079746 
 1480000   0.79465487  -0.34833706    1.4824517    1.1218244   -4.7200996    6.2025513    2.6042761 
 1490000   0.79471866  -0.29822108    1.4809084    1.1219145   -4.7228612    6.2037696    2.6028229 
 1500000   0.79782532  -0.22302548    1.4876626    1.1263002   -4.7155556    6.2032182    2.6139628 
 1510000   0.80103266  -0.26685293    1.4880951    1.1308281   -4.7157986    6.2038937    2.6189232 
 1520000   0.80088646  -0.24501944    1.4912603    1.1306217   -4.7145178    6.2057781     2.621882 
 1530000   0.79355199   -0.2677952    1.4860079    1.1202675   -4.7148899    6.2008978    2.6062754 
 1540000   0.80616918  -0.21357929    1.4905166    1.1380793   -4.7123679    6.2028845     2.628596 
 1550000   0.79895615  -0.27216999    1.4924472    1.1278966   -4.7097589    6.2022061    2.6203438 
 1560000    0.7960063  -0.28322353    1.4876477    1.1237323   -4.7157114    6.2033592      2.61138 
 1570000   0.79778067  -0.29493388    1.4863279    1.1262372   -4.7157279    6.2020558    2.6125651 
 1580000   0.79789144  -0.28713352    1.4822852    1.1263936   -4.7196084    6.2018936    2.6086788 
 1590000   0.80424985  -0.25016582    1.4820328    1.1353698   -4.7231633    6.2051961    2.6174026 
 1600000    0.8021879  -0.25639218    1.4922002    1.1324589   -4.7091647     6.201365    2.6246592 
 1610000   0.79704613  -0.25743593    1.4813068    1.1252002   -4.7206365    6.2019433     2.606507 
 1620000   0.79732572  -0.32094608    1.4798023    1.1255949   -4.7245007     6.204303    2.6053972 
 1630000   0.79750835  -0.28447958    1.4887165    1.1258527   -4.7155091    6.2042256    2.6145692 
 1640000   0.80735961  -0.25265484    1.4900203    1.1397599   -4.7104177     6.200438    2.6297802 
 1650000   0.80305043  -0.33083078    1.4921098    1.1336766   -4.7126458    6.2047557    2.6257864 
 1660000   0.80407983  -0.33311703    1.4828131    1.1351298    -4.721428    6.2042411    2.6179429 
 1670000    0.8019958  -0.29303363    1.4845184    1.1321877    -4.716006    6.2005245    2.6167062 
 1680000   0.80280767   -0.3133529    1.4971958    1.1333339   -4.7092838    6.2064795    2.6305296 
 1690000   0.79864721  -0.35220932    1.4912914    1.1274605    -4.710538    6.2018294    2.6187519 
 1700000   0.79563741  -0.27241469    1.4888116    1.1232115   -4.7129015    6.2017131    2.6120231 
 1710000   0.79481073  -0.25800363    1.4876382    1.1220445   -4.7157852    6.2034234    2.6096827 
 1720000   0.79711425   -0.3575739    1.4868443    1.1252964   -4.7154284    6.2022727    2.6121407 
 1730000   0.80192853  -0.25588529    1.4814842    1.1320928   -4.7219768    6.2034609    2.6135769 
 1740000   0.79603123  -0.28437002    1.4825741    1.1237675   -4.7194963    6.2020705    2.6063416 
 1750000   0.79712585  -0.23368712    1.4912437    1.1253128   -4.7147378    6.2059815    2.6165565 
 1760000   0.79904393  -0.29646484    1.4891601    1.1280205   -4.7143824    6.2035425    2.6171807 
 1770000   0.79777497  -0.23622103     1.497544    1.1262291   -4.7046445    6.2021885    2.6237731 
 1780000   0.80008355  -0.29274126    1.4842862    1.1294882   -4.7198215    6.2041076    2.6137744 
 1790000    0.7974229   -0.2846032    1.4912485    1.1257321   -4.7119854    6.2032339    2.6169807 
 1800000   0.80344633  -0.30399802    1.4875896    1.1342355   -4.7140787    6.2016683    2.6218251 
 1810000   0.79692219  -0.33099551    1.4771071    1.1250253   -4.7238349     6.200942    2.6021323 
 1820000   0.80589725  -0.27784278    1.4830292    1.1376955   -4.7196548     6.202684    2.6207247 
 1830000   0.80053616  -0.29135153    1.4850822    1.1301271   -4.7180096    6.2030918    2.6152094 
 1840000   0.80344561  -0.22283441    1.4918617    1.1342345   -4.7120729    6.2039346    2.6260962 
 1850000   0.80564576  -0.27657591    1.4868104    1.1373404   -4.7172151    6.2040254    2.6241508 
 1860000   0.80563088  -0.27321158    1.4847389    1.1373194   -4.7197847    6.2045236    2.6220583 
 1870000   0.79780918  -0.27120148    1.4815861    1.1262774   -4.7200528     6.201639    2.6078636 
 1880000   0.79792739  -0.29315383     1.489103    1.1264443   -4.7126199    6.2017229    2.6155473 
 1890000   0.79850942  -0.29870666    1.4823984     1.127266   -4.7177962    6.2001946    2.6096644 
 1900000   0.80266935  -0.30530971    1.4889567    1.1331386   -4.7140265    6.2029833    2.6220953 
 1910000   0.80239026  -0.26885951    1.4834306    1.1327446   -4.7173425    6.2007731    2.6161752 
 1920000   0.80056508  -0.26124454    1.4884708     1.130168   -4.7153623    6.2038332    2.6186388 
 1930000   0.79823593  -0.26316451    1.4797005    1.1268799   -4.7201588    6.1998593    2.6065804 
 1940000   0.79931285  -0.17644751    1.4932185    1.1284002   -4.7121989    6.2054174    2.6216187 
 1950000   0.80267739  -0.27206618    1.4819131      1.13315   -4.7223466    6.2042597     2.615063 
 1960000    0.7998337  -0.30702404    1.4826419    1.1291355   -4.7184816    6.2011235    2.6117774 
 1970000   0.80757511  -0.23779437    1.4856165    1.1400641   -4.7164306    6.2020471    2.6256806 
 1980000    0.7995602  -0.27110294    1.4843224    1.1287494   -4.7204305    6.2047529    2.6130718 
 1990000   0.79658563  -0.27532794    1.4919128    1.1245501   -4.7113659    6.2032787     2.616463 
 2000000   0.79535453  -0.31208167    1.4848184    1.1228122   -4.7171983    6.2020166    2.6076306 
 2010000   0.80416758   -0.2863367    1.4878481    1.1352537   -4.7172635    6.2051116    2.6231018 
 2020000   0.79737282  -0.32012338     1.483188    1.1256614   -4.7210424    6.2042304    2.6088495 
 2030000   0.79694447  -0.25145288    1.4888334    1.1250567   -4.7127173    6.2015507    2.6138901 
 2040000   0.79789361  -0.26360232    1.4856497    1.1263966   -4.7156401    6.2012898    2.6120463 
 2050000   0.80198424  -0.40528433    1.4794584    1.1321714   -4.7197717    6.1992301    2.6116298 
 2060000   0.79814334  -0.30736048    1.4806711    1.1267492   -4.7231457    6.2038168    2.6074203 
 2070000   0.79320316  -0.29518308    1.4871896    1.1197751   -4.7133755    6.2005651    2.6069646 
 2080000   0.79560063  -0.25765437    1.4915284    1.1231596   -4.7128903    6.2044187     2.614688 
 2090000   0.80149898  -0.30562447    1.4935395    1.1314864   -4.7090125    6.2025519    2.6250258 
 2100000   0.79574361  -0.29985149    1.4901185    1.1233614   -4.7149099    6.2050284    2.6134799 
 2110000   0.79230124  -0.25685936    1.4900106    1.1185018   -4.7129423    6.2029528    2.6085124 
 2120000   0.80683969  -0.25537401    1.4824844    1.1390259   -4.7227338    6.2052182    2.6215103 
 2130000   0.79464508  -0.29606532    1.4841831    1.1218106    -4.716567    6.2007501    2.6059937 
 2140000   0.80535152  -0.22968559    1.4853975     1.136925   -4.7165373    6.2019349    2.6223226 
 2150000   0.80169876  -0.27391131    1.4894988    1.1317684   -4.7133413    6.2028401    2.6212672 
 2160000    0.7979835  -0.24741695    1.4892632    1.1265235   -4.7128331    6.2020963    2.6157867 
 2170000   0.80667293  -0.23551107    1.4835908    1.1387905   -4.7159858    6.1995766    2.6223813 
 2180000   0.80366075  -0.27490535    1.4810889    1.1345382   -4.7210223    6.2021112    2.6156271 
 2190000    0.8036833  -0.26008671    1.4880656      1.13457   -4.7148297    6.2028953    2.6226356 
 2200000   0.80306894  -0.27881503    1.4900536    1.1337027   -4.7157628    6.2058164    2.6237563 
 2210000   0.79822489  -0.29645995    1.4887368    1.1268643   -4.7126271    6.2013639    2.6156011 
 2220000   0.80594597  -0.28884755    1.4759732    1.1377642   -4.7247705    6.2007437    2.6137374 
 2230000   0.80423318  -0.27153543    1.4864849    1.1353463   -4.7137449    6.2002298    2.6218312 
 2240000   0.80029381  -0.26942265    1.4890107     1.129785   -4.7160162    6.2050269    2.6187957 
 2250000   0.79733848  -0.28029903    1.4845791    1.1256129   -4.7198067    6.2043857     2.610192 
 2260000   0.79776538  -0.32865333    1.4873878    1.1262156   -4.7171723      6.20456    2.6136034 
 2270000    0.7943506  -0.31013463    1.4916096    1.1213949   -4.7088948    6.2005044    2.6130045 
 2280000   0.80694251  -0.27753139     1.489094    1.1391711   -4.7133527    6.2024467    2.6282651 
 2290000   0.79377681  -0.23927073    1.4948562    1.1205849   -4.7086842    6.2035404    2.6154411 
 2300000   0.80486509  -0.21167684    1.4959534    1.1362384   -4.7080941    6.2040475    2.6321917 
 2310000    0.8019509  -0.27848005    1.4869535    1.1321243    -4.717827    6.2047806    2.6190779 
 2320000   0.80070516  -0.24872253     1.491862    1.1303657   -4.7098385    6.2017005    2.6222277 
 2330000   0.80472601  -0.26758798    1.4887136     1.136042   -4.7162103    6.2049239    2.6247556 
 2340000   0.79429631  -0.29704021    1.4840057    1.1213183   -4.7173502    6.2013559    2.6053239 
 2350000   0.80122924  -0.30881047    1.4881589    1.1311056   -4.7182641     6.206423    2.6192645 
 2360000   0.79388112  -0.25858291    1.4917055    1.1207321   -4.7143301    6.2060357    2.6124377 
 2370000   0.79321073  -0.25104554    1.4893691    1.1197857   -4.7145531    6.2039223    2.6091549 
 2380000   0.79666654  -0.29926386    1.4777745    1.1246644   -4.7258328    6.2036073    2.6024388 
 2390000   0.80508845  -0.30061014    1.4806149    1.1365537   -4.7222566    6.2028715    2.6171686 
 2400000   0.79697645  -0.25158844    1.4877548    1.1251019   -4.7167007    6.2044555    2.6128567 
 2410000   0.79413089  -0.21735088    1.4845459    1.1210847   -4.7181658    6.2027117    2.6056306 
 2420000   0.79596102  -0.22603538    1.4820644    1.1236684   -4.7197785    6.2018428    2.6057327 
 2430000   0.80420726  -0.21973229    1.4906866    1.1353097   -4.7124363    6.2031229    2.6259962 
 2440000   0.80237652  -0.26377685    1.4864621    1.1327252   -4.7143937    6.2008558    2.6191873 
 2450000   0.79798906  -0.30989535    1.4757993    1.1265314    -4.725845    6.2016443    2.6023307 
 2460000   0.80261464  -0.26575613    1.4860203    1.1330614   -4.7167586    6.2027789    2.6190816 
 2470000   0.80013884  -0.24780227    1.4910783    1.1295662   -4.7113703    6.2024486    2.6206446 
 2480000   0.80108206  -0.24927901    1.4911989    1.1308978   -4.7089983    6.2001972    2.6220967 
 2490000   0.79868324  -0.26814118    1.4836263    1.1275114   -4.7186465    6.2022728    2.6111376 
 2500000   0.79448484  -0.33740915    1.4852903    1.1215844   -4.7164247     6.201715    2.6068748 
 2510000   0.79877478  -0.24579479    1.4841054    1.1276406   -4.7214403    6.2055457    2.6117459 
 2520000   0.80041634  -0.27729337    1.4872596     1.129958   -4.7178269    6.2050865    2.6172176 
 2530000    0.7975939   -0.3017898    1.4875783    1.1259735   -4.7141892    6.2017674    2.6135518 
 2540000   0.79803472  -0.28633528    1.4920028    1.1265958   -4.7141546    6.2061575    2.6185986 
 2550000   0.80618379  -0.28076144    1.4773586       1.1381   -4.7260086    6.2033671    2.6154586 
 2560000   0.80685692  -0.24499259    1.4944024    1.1390502   -4.7098073    6.2042097    2.6334526 
 2570000   0.79194168  -0.32395937    1.4786841    1.1179942   -4.7270416    6.2057257    2.5966783 
 2580000    0.7985214  -0.31544207    1.4791124    1.1272829   -4.7263838    6.2054962    2.6063953 
 2590000   0.79432924  -0.22212866    1.4834108    1.1213648    -4.719618    6.2030289    2.6047756 
 2600000   0.79946983  -0.33460776    1.4722025    1.1286218   -4.7306321    6.2028346    2.6008243 
 2610000   0.79987277  -0.31001021    1.4903942    1.1291906    -4.714685    6.2050792    2.6195849 
 2620000   0.80238299  -0.23223249    1.4842698    1.1327343   -4.7187976    6.2030675    2.6170042 
 2630000   0.80226066  -0.25935999    1.4903007    1.1325616   -4.7148548    6.2051555    2.6228624 
 2640000   0.80388472  -0.26096726    1.4915434    1.1348544   -4.7142799    6.2058233    2.6263977 
 2650000   0.79837985  -0.30954207    1.4878258    1.1270831   -4.7168915    6.2047173    2.6149088 
 2660000   0.79435804  -0.27230342      1.48777    1.1214054   -4.7145369    6.2023069    2.6091754 
 2670000   0.79820878  -0.28951538    1.4826721    1.1268416   -4.7192319    6.2019041    2.6095137 
 2680000     0.798781  -0.21858802    1.4895766    1.1276494   -4.7125619    6.2021385     2.617226 
 2690000   0.80036676  -0.23206614     1.489931     1.129888   -4.7128119    6.2027429     2.619819 
 2700000   0.79576242  -0.27687764    1.4858775     1.123388   -4.7195065     6.205384    2.6092655 
 2710000   0.79849424  -0.32834129    1.4861505    1.1272445   -4.7180162    6.2041667     2.613395 
 2720000   0.80613258  -0.23354697    1.4845389    1.1380277   -4.7168956    6.2014344    2.6225666 
 2730000   0.79921565   -0.2967534    1.4816012     1.128263   -4.7211896    6.2027908    2.6098642 
 2740000   0.80010937  -0.33549299    1.4859543    1.1295246     -4.71579    6.2017443     2.615479 
 2750000   0.80229642   -0.2998945    1.4891202    1.1326121   -4.7147199    6.2038402    2.6217324 
 2760000   0.80273706  -0.29664518     1.481979    1.1332342   -4.7214872    6.2034662    2.6152132 
 2770000   0.79758085  -0.26132073    1.4844447    1.1259551   -4.7166564    6.2011011    2.6103998 
 2780000   0.80267803  -0.25549213    1.4891786    1.1331509   -4.7134119    6.2025905    2.6223295 
 2790000   0.80310113  -0.23508904    1.4897948    1.1337481   -4.7111271     6.200922     2.623543 
 2800000   0.79881089  -0.30477771    1.4859112    1.1276916   -4.7202195    6.2061308    2.6136028 
 2810000   0.80252444  -0.26574408    1.4924649     1.132934   -4.7097733    6.2022382     2.625399 
 2820000   0.79655143  -0.32651423    1.4924521    1.1245018    -4.708185    6.2006372     2.616954 
 2830000   0.79574091  -0.32827985     1.484011    1.1233576   -4.7184238    6.2024348    2.6073686 
 2840000   0.80217185  -0.27439423    1.4977695    1.1324363   -4.7084794    6.2062489    2.6302058 
 2850000   0.79560657  -0.30434135    1.4929388     1.123168   -4.7135534    6.2064922    2.6161068 
 2860000   0.80243378  -0.34365501    1.4825276     1.132806   -4.7182367    6.2007643    2.6153336 
 2870000      0.80965  -0.26364123    1.4848021    1.1429933   -4.7200573    6.2048594    2.6277954 
 2880000   0.80857887  -0.30361833    1.4790311    1.1414811   -4.7214436    6.2004747    2.6205123 
 2890000   0.79914582  -0.30754344    1.4924665    1.1281644   -4.7133915     6.205858    2.6206308 
 2900000   0.80689432  -0.26663255    1.4895369     1.139103    -4.713757    6.2032938    2.6286399 
 2910000   0.79917121  -0.32751097    1.4879334    1.1282002    -4.717612    6.2055453    2.6161336 
 2920000   0.79897341  -0.27609202    1.4869949     1.127921   -4.7162201     6.203215    2.6149159 
 2930000   0.80292715  -0.26682391    1.4781854    1.1335025   -4.7238305     6.202016     2.611688 
 2940000   0.80392811  -0.27198185    1.4798947    1.1349156   -4.7242517    6.2041464    2.6148103 
 2950000   0.80427259  -0.25817203    1.4791291    1.1354019   -4.7260254    6.2051545     2.614531 
 2960000    0.7997654  -0.35375229     1.474203    1.1290391   -4.7280662    6.2022692     2.603242 
 2970000   0.79640315   -0.3099854    1.4838689    1.1242925   -4.7212195    6.2050883    2.6081614 
 2980000   0.80164762  -0.26563555     1.487504    1.1316962   -4.7157448    6.2032488    2.6192002 
 2990000   0.79996259  -0.37244341    1.4822797    1.1293174   -4.7202811    6.2025608    2.6115972 
 3000000   0.79398583  -0.35351364    1.4910771      1.12088   -4.7127391    6.2038162    2.6119571 
 3010000   0.80191953  -0.29019712    1.4844336    1.1320801   -4.7206466    6.2050802    2.6165136 
 3020000   0.79859558  -0.24592214    1.4750825    1.1273876   -4.7267714    6.2018539    2.6024701 
 3030000   0.80359793  -0.26152344    1.4825476    1.1344495   -4.7227812    6.2053288    2.6169971 
 3040000   0.80537982  -0.28374639    1.4947583     1.136965   -4.7096757    6.2044341    2.6317233 
 3050000    0.8063823  -0.30196889    1.4809381    1.1383802   -4.7203816    6.2013196    2.6193183 
 3060000   0.79944616   -0.2949397    1.4947319    1.1285884   -4.7102873    6.2050192    2.6233203 
 3070000   0.80002544  -0.25367419    1.4943135    1.1294061   -4.7118099    6.2061234    2.6237197 
 3080000   0.80463503  -0.31588186    1.4803024    1.1359136   -4.7234297    6.2037321     2.616216 
 3090000   0.80343648  -0.26924652    1.4862793    1.1342216   -4.7179144    6.2041937    2.6205008 
 3100000     0.800128   -0.3003445    1.4902252    1.1295509   -4.7148898    6.2051151    2.6197762 
 3110000    0.8008113  -0.34333529    1.4814422    1.1305156   -4.7193541    6.2007963    2.6119578 
 3120000   0.80527103  -0.27240413    1.4849257    1.1368114   -4.7190289    6.2039546    2.6217371 
 3130000    0.8076319  -0.23719108    1.4735092    1.1401443   -4.7296737     6.203183    2.6136535 
 3140000    0.8025892   -0.2675034    1.4821247    1.1330255   -4.7219699    6.2040946    2.6151502 
 3150000   0.81254342  -0.25214307    1.4894295    1.1470779    -4.715833    6.2052625    2.6365074 
 3160000   0.79425114  -0.26473601    1.4865357    1.1212545   -4.7160462    6.2025819    2.6077902 
 3170000   0.79476993  -0.28150571    1.4849829    1.1219869   -4.7160766    6.2010595    2.6069698 
 3180000   0.80027921  -0.28401561    1.4870841    1.1297644   -4.7151867    6.2022708    2.6168485 
 3190000   0.79382571  -0.27237275    1.4858537    1.1206539   -4.7180203     6.203874    2.6065077 
 3200000     0.795968  -0.21032011    1.4851309    1.1236782   -4.7146773    6.1998082    2.6088091 
 3210000   0.80353767  -0.28191176    1.4809524    1.1343644   -4.7257428    6.2066952    2.6153168 
 3220000   0.80235621   -0.2929724    1.4873414    1.1326965   -4.7159028    6.2032443     2.620038 
 3230000   0.80068122  -0.30607298    1.4903422    1.1303319   -4.7145251    6.2048673    2.6206741 
 3240000   0.80469442  -0.24459735    1.4865763    1.1359974   -4.7178028    6.2043791    2.6225737 
 3250000   0.80167272  -0.27941167    1.4805449    1.1317316   -4.7224735    6.2030184    2.6122765 
 3260000   0.79819618  -0.26450892    1.4842145    1.1268238   -4.7184643    6.2026788    2.6110382 
 3270000    0.7999792  -0.31865309     1.483119    1.1293409   -4.7188087    6.2019277    2.6124599 
 3280000   0.80235965  -0.34059552    1.4827034    1.1327014   -4.7206748    6.2033782    2.6154048 
 3290000   0.80289243  -0.18832906    1.4905818    1.1334535   -4.7159355    6.2065173    2.6240353 
 3300000   0.79959237   -0.2989629    1.4820274    1.1287948   -4.7225615    6.2045889    2.6108222 
 3310000   0.79831601  -0.25693265    1.4837856    1.1269929   -4.7230159    6.2068016    2.6107786 
 3320000   0.79853458  -0.29026581    1.4795814    1.1273015   -4.7213126     6.200894    2.6068829 
 3330000   0.80036147  -0.28935019    1.4833958    1.1298805   -4.7210376    6.2044335    2.6132764 
 3340000   0.80037432   -0.2811444    1.4888877    1.1298987   -4.7122994     6.201187    2.6187864 
 3350000   0.79856998  -0.22028806    1.4974301    1.1273515   -4.7076054    6.2050355    2.6247815 
 3360000   0.80056633  -0.23039084    1.4908267    1.1301697     -4.71087    6.2016967    2.6209964 
 3370000   0.80206042  -0.30251634    1.4883418     1.132279    -4.716271    6.2046129    2.6206208 
 3380000   0.80348823   -0.2859283    1.4827461    1.1342946     -4.71919    6.2019361    2.6170408 
 3390000   0.79851783  -0.28872856     1.484787    1.1272779   -4.7148766    6.1996636    2.6120648 
 3400000   0.79880423  -0.29766999    1.4824033    1.1276822   -4.7250151    6.2074183    2.6100854 
 3410000   0.79984997  -0.29763815    1.4812935    1.1291584   -4.7220919    6.2033855     2.610452 
 3420000   0.80359287  -0.24808221    1.4803694    1.1344423   -4.7221882    6.2025577    2.6148118 
 3430000   0.80297431  -0.21421231    1.4861912    1.1335691   -4.7173632    6.2035545    2.6197603 
 3440000   0.79246988  -0.28728183    1.4873299    1.1187399   -4.7166196    6.2039495    2.6060698 
 3450000   0.80017088  -0.29212992    1.4840207    1.1296115    -4.718057    6.2020777    2.6136322 
 3460000   0.80119507  -0.26814812    1.4838006    1.1310573   -4.7188497    6.2026503     2.614858 
 3470000   0.79155494  -0.30794718    1.4902092    1.1174482   -4.7130943    6.2033035    2.6076574 
 3480000   0.79989363  -0.33276065    1.4771796    1.1292201   -4.7246912    6.2018708    2.6063997 
 3490000   0.79628182  -0.26145555    1.4896932    1.1241212   -4.7127591    6.2024523    2.6138144 
 3500000   0.79930849   -0.2647245    1.4851298     1.128394   -4.7166846    6.2018144    2.6135238 
 3510000   0.80064207  -0.28022257    1.4890799    1.1302767   -4.7149645    6.2040444    2.6193565 
 3520000   0.80211389  -0.29561533    1.4779137    1.1323545   -4.7251742    6.2030879    2.6102681 
 3530000     0.795032  -0.28079203     1.488859    1.1223569   -4.7137498    6.2026088    2.6112158 
 3540000   0.79704398  -0.25565994    1.4883074    1.1251972    -4.715948    6.2042554    2.6135046 
 3550000   0.80042685  -0.26608587    1.4780511    1.1299728   -4.7248116    6.2028627    2.6080239 
 3560000   0.79941935  -0.27819705    1.4953375    1.1285505   -4.7122895     6.207627     2.623888 
 3570000   0.80631774  -0.28228566    1.4880632    1.1382891   -4.7164947    6.2045579    2.6263523 
 3580000   0.80182733  -0.24709981     1.487699    1.1319499    -4.714148     6.201847    2.6196489 
 3590000   0.79725403  -0.28905071    1.4864413    1.1254937   -4.7172281    6.2036694     2.611935 
 3600000    0.8042388  -0.23967738    1.4839532    1.1353542   -4.7198147    6.2037678    2.6193074 
 3610000   0.79444923  -0.28928985    1.4814945    1.1215342   -4.7231441    6.2046386    2.6030287 
 3620000   0.80449233  -0.31080922    1.4804532    1.1357121    -4.724459    6.2049122    2.6161653 
 3630000   0.79895816  -0.30512258    1.4922995    1.1278995   -4.7134661    6.2057656     2.620199 
 3640000   0.79622066  -0.28233817    1.4795767    1.1240349   -4.7235198    6.2030965    2.6036116 
 3650000   0.80253962  -0.27395415    1.4891826    1.1329555   -4.7127125    6.2018951    2.6221381 
 3660000   0.80026704  -0.20681886    1.4864784    1.1297472   -4.7195068    6.2059852    2.6162256 
 3670000   0.80094279   -0.2452008    1.4953806    1.1307012   -4.7108019    6.2061825    2.6260818 
 3680000   0.80280508  -0.31253922    1.4768187    1.1333302    -4.722369    6.1991878     2.610149 
 3690000   0.79563998  -0.25825337    1.4845749    1.1232151   -4.7178885    6.2024634      2.60779 
 3700000   0.79723389  -0.20731743    1.4877768    1.1254653   -4.7156142     6.203391     2.613242 
 3710000   0.79909729  -0.24897251    1.4878315    1.1280959   -4.7146696    6.2025011    2.6159274 
 3720000   0.79495294  -0.26403772    1.4848435    1.1222452   -4.7191695     6.204013    2.6070887 
 3730000   0.79611486   -0.3223828    1.4873172    1.1238855   -4.7150267    6.2023439    2.6112028 
 3740000   0.80375207  -0.30842353    1.4883865    1.1346671   -4.7173479    6.2057344    2.6230536 
 3750000   0.80095331  -0.27863858    1.4829196     1.130716    -4.722192    6.2051116    2.6136356 
 3760000   0.80185531  -0.30672202    1.4792591    1.1319894   -4.7220608    6.2013199    2.6112485 
 3770000   0.79866341  -0.30971534    1.4805849    1.1274834   -4.7249949    6.2055798    2.6080683 
 3780000   0.79314071  -0.29218971    1.4806067    1.1196869   -4.7197741    6.2003808    2.6002936 
 3790000   0.80311416  -0.27752879    1.4819011    1.1337665   -4.7213973    6.2032984    2.6156677 
 3800000   0.80601971  -0.29119063    1.4901652    1.1378683   -4.7156487    6.2058138    2.6280335 
 3810000   0.80380561  -0.28213356    1.4849046    1.1347427   -4.7173233    6.2022279    2.6196473 
 3820000   0.79945209  -0.25414681    1.4892163    1.1285967   -4.7162976    6.2055139    2.6178131 
 3830000   0.80134654   -0.3533126    1.4814041    1.1312712   -4.7230766    6.2044807    2.6126753 
 3840000   0.79323062   -0.2549365    1.4875128    1.1198138   -4.7148762     6.202389    2.6073266 
 3850000   0.80080309  -0.25260777    1.4821171     1.130504   -4.7215513    6.2036684    2.6126211 
 3860000   0.79541101  -0.26538524    1.4907128    1.1228919    -4.712789    6.2035019    2.6136047 
 3870000   0.79929263  -0.27472689    1.4862512    1.1283716   -4.7184462    6.2046974    2.6146228 
 3880000   0.79681472  -0.26324463    1.4753226    1.1248735   -4.7255111    6.2008337    2.6001962 
 3890000   0.79694906  -0.29351088    1.4818415    1.1250632   -4.7213487    6.2031902    2.6069046 
 3900000   0.80172049  -0.31595432    1.4814694    1.1317991   -4.7206403    6.2021098    2.6132685 
 3910000    0.7930473  -0.30387356    1.4796699     1.119555   -4.7228202      6.20249    2.5992249 
 3920000    0.8013824  -0.29009795    1.4804129    1.1313218   -4.7237088    6.2041217    2.6117347 
 3930000   0.79671565  -0.25458713    1.4917998    1.1247337   -4.7124558    6.2042556    2.6165335 
 3940000   0.79797175  -0.27100911    1.4913195    1.1265069   -4.7112646    6.2025841    2.6178265 
 3950000   0.80134399  -0.30755439    1.4831133    1.1312676   -4.7181857     6.201299    2.6143808 
 3960000   0.79835396   -0.3253749    1.4850232    1.1270465   -4.7182448     6.203268    2.6120697 
 3970000   0.80018998    -0.202944    1.4954819    1.1296384   -4.7065238    6.2020057    2.6251203 
 3980000   0.79119854  -0.25053867    1.5003036    1.1169451   -4.7050362    6.2053398    2.6172487 
 3990000   0.80031353  -0.27201185    1.4896344    1.1298129   -4.7139302    6.2035646    2.6194473 
 4000000   0.80431429   -0.2359903    1.4896467    1.1354608   -4.7114176    6.2010643    2.6251075 
 4010000   0.80144792   -0.2999503    1.4898795    1.1314143    -4.714501    6.2043805    2.6212938 
 4020000    0.8014132  -0.22928494    1.4909854    1.1313653   -4.7135792    6.2045647    2.6223507 
 4030000   0.79831337  -0.27271207    1.4804136    1.1269892   -4.7221688    6.2025824    2.6074028 
 4040000   0.79797876  -0.31104996     1.487539    1.1265168   -4.7178104    6.2053495    2.6140559 
 4050000   0.80897106  -0.31067065    1.4870568    1.1420348   -4.7154953    6.2025521    2.6290916 
 4060000   0.79374788  -0.30226025    1.4857778    1.1205441   -4.7161343    6.2019121    2.6063218 
 4070000   0.80084377  -0.22367545    1.4927155    1.1305614   -4.7144886     6.207204    2.6232769 
 4080000   0.80206939  -0.30897987     1.490483    1.1322916   -4.7136851    6.2041681    2.6227746 
 4090000   0.79593841  -0.27837336    1.4865704    1.1236364     -4.71765    6.2042204    2.6102069 
 4100000   0.79364872  -0.25353633    1.4879695    1.1204041   -4.7159532    6.2039226    2.6083735 
 4110000    0.7989405  -0.26151858     1.492337    1.1278745   -4.7144774    6.2068144    2.6202115 
 4120000   0.79327055  -0.25291674    1.4912374    1.1198702   -4.7135318    6.2047692    2.6111076 
 4130000   0.80104606  -0.29781646    1.4861505     1.130847   -4.7174001    6.2035505    2.6169975 
 4140000   0.79816624  -0.26871243    1.4909611    1.1267815    -4.709636    6.2005971    2.6177426 
 4150000    0.7929691  -0.33235367     1.480471    1.1194446   -4.7216201    6.2020911    2.5999156 
 4160000    0.8071495  -0.26084305    1.4920838    1.1394633   -4.7147291    6.2068129    2.6315471 
 4170000   0.79690855  -0.26914906    1.4864542     1.125006   -4.7175902    6.2040445    2.6114602 
 4180000   0.79185935  -0.29395272     1.485893     1.117878   -4.7165622    6.2024551     2.603771 
 4190000   0.79554438  -0.23110975    1.4860289    1.1230802   -4.7177786    6.2038075    2.6091091 
 4200000   0.79645994  -0.30950231     1.484889    1.1243727   -4.7174317    6.2023207    2.6092617 
 4210000   0.79608305  -0.27227973    1.4886352    1.1238406   -4.7129882    6.2016234    2.6124758 
 4220000   0.79568329  -0.27699835    1.4795051    1.1232763   -4.7214937    6.2009988    2.6027814 
 4230000   0.79384639  -0.27671082    1.4971983    1.1206831   -4.7059677     6.203166    2.6178814 
 4240000   0.80078068   -0.2824723    1.4914452    1.1304723    -4.708523    6.1999683    2.6219176 
 4250000   0.80694395  -0.22414818    1.4848457    1.1391731   -4.7188589    6.2037047    2.6240188 
 4260000   0.80666391  -0.33886502    1.4812437    1.1387778    -4.721745    6.2029887    2.6200215 
 4270000   0.79784292  -0.31897041    1.4783681    1.1263251   -4.7219127    6.2002808    2.6046932 
 4280000   0.80044624  -0.30179368     1.491373    1.1300002   -4.7127819    6.2041549    2.6213732 
 4290000   0.80159507  -0.24751581    1.4939078     1.131622   -4.7101453     6.204053    2.6255298 
 4300000   0.79936047  -0.25598317    1.4770035    1.1284674   -4.7241448    6.2011483    2.6054709 
 4310000   0.80041206  -0.36020006    1.4805106    1.1299519   -4.7217463    6.2022569    2.6104625 
 4320000   0.80116846  -0.31960019    1.4849643    1.1310198   -4.7177881    6.2027524     2.615984 
 4330000   0.79568461  -0.28921588    1.4875844    1.1232781   -4.7170826     6.204667    2.6108625 
 4340000   0.80457074  -0.28012248    1.4855781    1.1358228   -4.7178707    6.2034488     2.621401 
 4350000    0.8008619  -0.26896344    1.4894497     1.130587    -4.712534    6.2019837    2.6200367 
 4360000   0.80452381  -0.28562815     1.483442    1.1357566   -4.7175226    6.2009646    2.6191986 
 4370000    0.7945566  -0.27504264    1.4859118    1.1216857   -4.7171426    6.2030544    2.6075975 
 4380000   0.80387905  -0.29696549    1.4850029    1.1348464   -4.7184141     6.203417    2.6198492 
 4390000   0.78988293  -0.29719271    1.4833747    1.1150878   -4.7204388    6.2038135    2.5984626 
 4400000   0.80290681  -0.24270373    1.4925721    1.1334738   -4.7138606    6.2064327    2.6260459 
 4410000   0.80254504  -0.28196859    1.4870396    1.1329631   -4.7158913    6.2029309    2.6200027 
 4420000    0.7985692  -0.27571925    1.4776361    1.1273504   -4.7245762    6.2022122    2.6049864 
 4430000   0.79332126  -0.26951697    1.4782634    1.1199418   -4.7265717    6.2048351    2.5982051 
 4440000   0.79718585  -0.24674545    1.4865455    1.1253975   -4.7177137    6.2042592    2.6119429 
 4450000   0.79264462  -0.32260517    1.4838854    1.1189866   -4.7201405    6.2040259     2.602872 
 4460000   0.79692073  -0.27146895    1.4917645    1.1250232   -4.7124996     6.204264    2.6167877 
 4470000   0.80331329  -0.28917353     1.477603    1.1340477   -4.7253808    6.2029837    2.6116506 
 4480000   0.80413514  -0.30620726    1.4888174    1.1352079   -4.7168827    6.2057001    2.6240253 
 4490000   0.79377856  -0.27420247    1.4790877    1.1205874   -4.7225413     6.201629     2.599675 
 4500000   0.79891446  -0.31460274    1.4961496    1.1278378   -4.7088794     6.205029    2.6239874 
 4510000   0.79948757   -0.2596087    1.4885042    1.1286468   -4.7152642    6.2037685    2.6171511 
 4520000   0.79925789  -0.29846984    1.4774377    1.1283226   -4.7232288    6.2006665    2.6057603 
 4530000   0.80284999  -0.20318788     1.490223    1.1333936   -4.7132821    6.2035051    2.6236166 
 4540000   0.80215293  -0.29557984    1.4786564    1.1324096   -4.7270157    6.2056721     2.611066 
 4550000   0.79602243  -0.23885819    1.4891921    1.1237551   -4.7119993    6.2011915    2.6129472 
 4560000   0.80019703  -0.31326817    1.4783856    1.1296484   -4.7220311    6.2004167    2.6080339 
 4570000   0.79939921   -0.3013804    1.4883799    1.1285221   -4.7128968    6.2012767     2.616902 
 4580000   0.80175986  -0.27069378     1.492564    1.1318547   -4.7104728    6.2030368    2.6244186 
 4590000   0.79598588  -0.32510034    1.4872261    1.1237035   -4.7181888    6.2054148    2.6109295 
 4600000   0.79574772  -0.30769405    1.4901052    1.1233672   -4.7109494    6.2010546    2.6134725 
 4610000   0.79550537  -0.28322151    1.4876706    1.1230251    -4.715776    6.2034466    2.6106958 
 4620000    0.8008166  -0.29303719    1.4846659     1.130523   -4.7181511     6.202817    2.6151889 
 4630000   0.80334257   -0.2539453    1.4949015     1.134089   -4.7126055    6.2075071    2.6289905 
 4640000   0.80150406  -0.26231894    1.4902645    1.1314935   -4.7144813    6.2047458    2.6217581 
 4650000   0.79673035  -0.33081334    1.4857393    1.1247544   -4.7151253    6.2008645    2.6104937 
 4660000   0.79569962  -0.23445549    1.4953635    1.1232993    -4.707365    6.2027285    2.6186629 
 4670000   0.78968287  -0.33495043    1.4851679    1.1148054   -4.7190293    6.2041972    2.5999734 
 4680000   0.79601799  -0.23969679    1.4861054    1.1237488   -4.7152872    6.2013925    2.6098542 
 4690000   0.80127195  -0.28638258     1.488495    1.1311659   -4.7141808    6.2026758    2.6196608 
 4700000   0.78682959  -0.27404535    1.4849012    1.1107774    -4.719299    6.2042002    2.5956786 
 4710000   0.80304757  -0.31101983    1.4975837    1.1336725   -4.7077288    6.2053124    2.6312562 
 4720000   0.79698284  -0.29621006    1.4877946    1.1251109   -4.7146712    6.2024658    2.6129055 
 4730000   0.79991018  -0.36997371    1.4767273    1.1292434   -4.7271111    6.2038383    2.6059707 
 4740000    0.7969702  -0.23215336    1.4950804     1.125093   -4.7104483    6.2055287    2.6201735 
 4750000   0.79899177  -0.25038613    1.4898315    1.1279469   -4.7150343    6.2048658    2.6177784 
 4760000   0.80216796  -0.26875023    1.4927936    1.1324308   -4.7123305    6.2051241    2.6252244 
 4770000   0.80007236  -0.32658876    1.4882993    1.1294724   -4.7148363    6.2031356    2.6177717 
 4780000   0.80179061  -0.24452936    1.4837448    1.1318981   -4.7171402     6.200885    2.6156429 
 4790000   0.79817204  -0.28381433    1.4896729    1.1267897   -4.7127588    6.2024317    2.6164626 
 4800000   0.79965731  -0.26284556    1.4897133    1.1288865   -4.7171754    6.2068887    2.6185997 
 4810000   0.80734277  -0.26951828      1.49165    1.1397361    -4.711998     6.203648    2.6313861 
 4820000   0.79388189   -0.2415823    1.4953049    1.1207332   -4.7118405    6.2071454    2.6160381 
 4830000   0.79737551  -0.26140371    1.4923541    1.1256652   -4.7125611    6.2049153    2.6180193 
 4840000    0.7916327   -0.2876134    1.4936143     1.117558   -4.7113466    6.2049608    2.6111723 
 4850000   0.80583991  -0.33170242    1.4837742    1.1376145   -4.7207126    6.2044867    2.6213887 
 4860000   0.80228952  -0.29168599    1.4888441    1.1326024   -4.7154116    6.2042557    2.6214465 
 4870000   0.79869884  -0.27889839    1.4922529    1.1275334   -4.7155917    6.2078446    2.6197863 
 4880000     0.802147  -0.33041392     1.486899    1.1324012   -4.7186427    6.2055416    2.6193002 
 4890000    0.8028156  -0.21939556    1.4873573    1.1333451   -4.7191396    6.2064969    2.6207024 
 4900000   0.80340372    -0.291648    1.4878635    1.1341753   -4.7146082    6.2024716    2.6220388 
 4910000   0.79472623   -0.1877974    1.4963758    1.1219252   -4.7055568    6.2019326    2.6183009 
 4920000   0.79900163  -0.28273881    1.4908838    1.1279608   -4.7125323    6.2034161    2.6188447 
 4930000   0.80832768  -0.29280473    1.4913313    1.1411265   -4.7110271    6.2023584    2.6324578 
 4940000   0.80214687   -0.2714581     1.496357     1.132401   -4.7119438    6.2083008     2.628758 
 4950000   0.79882875  -0.28266163    1.4883781    1.1277168   -4.7147991    6.2031772    2.6160949 
 4960000   0.80044324  -0.22202158    1.4921957     1.129996   -4.7109651    6.2031609    2.6221917 
 4970000   0.79977883  -0.25240935    1.4778709     1.129058   -4.7241494    6.2020203    2.6069289 
 4980000   0.80367933  -0.25565135    1.4923928    1.1345644   -4.7132415    6.2056342    2.6269572 
 4990000   0.80321981  -0.30233597    1.4882375    1.1339157   -4.7147854    6.2030228    2.6221532 
 5000000   0.80140918  -0.28487036    1.4817678    1.1313596    -4.720444    6.2022117    2.6131274 
 5010000   0.79958666  -0.24809456    1.4859146    1.1287867   -4.7197266    6.2056412    2.6147014 
 5020000   0.79989131  -0.24935722    1.4904708    1.1292168   -4.7120252    6.2024961    2.6196876 
 5030000   0.80550983  -0.19589101    1.4968876    1.1371485   -4.7067378    6.2036254    2.6340362 
 5040000   0.80456348  -0.27546657    1.4874219    1.1358126   -4.7131112    6.2005331    2.6232344 
 5050000   0.79534089  -0.32104403    1.4811919    1.1227929   -4.7232971     6.204489    2.6039848 
 5060000   0.79711422  -0.25621208       1.4951    1.1252964    -4.708557    6.2036571    2.6203964 
 5070000   0.79470816  -0.27933289    1.4931678    1.1218997    -4.709937    6.2031048    2.6150675 
 5080000   0.80170995  -0.28870037    1.4898034    1.1317842   -4.7133299    6.2031334    2.6215876 
 5090000   0.80273923  -0.22992505    1.4958898    1.1332372   -4.7111234    6.2070132     2.629127 
 5100000    0.7932054  -0.23071146    1.4871022    1.1197782   -4.7146091    6.2017113    2.6068804 
 5110000   0.80349425  -0.33141066     1.487204    1.1343031   -4.7181157    6.2053197    2.6215071 
 5120000    0.8016837  -0.32321798    1.4847945    1.1317471   -4.7187404     6.203535    2.6165417 
 5130000   0.80026347  -0.28677222    1.4877355    1.1297422   -4.7165417    6.2042772    2.6174777 
 5140000   0.80162561  -0.26155672    1.4919061    1.1316651   -4.7076493    6.1995554    2.6235713 
 5150000   0.79758048  -0.29857004    1.4918222    1.1259546   -4.7124284    6.2042507    2.6177768 
 5160000   0.80521322  -0.21525376    1.4918606    1.1367298   -4.7094283    6.2012888    2.6285904 
 5170000   0.80671735  -0.30641724    1.4885585    1.1388532   -4.7180846    6.2066432    2.6274118 
 5180000   0.79954656  -0.28781737    1.4854271    1.1287301   -4.7161473    6.2015744    2.6141572 
 5190000   0.79393819  -0.26867399    1.4819158    1.1208127   -4.7209401    6.2028558    2.6027285 
 5200000   0.80220341  -0.24519716    1.4785779    1.1324808   -4.7226118    6.2011897    2.6110587 
 5210000   0.80689337   -0.2678045    1.4918637    1.1391017   -4.7120856    6.2039493    2.6309655 
 5220000   0.79819348  -0.31281068    1.4956511      1.12682    -4.711426    6.2070771     2.622471 
 5230000   0.79904681  -0.25218704    1.4873603    1.1280246    -4.714806    6.2021663    2.6153849 
 5240000   0.79965856  -0.26023049    1.4799458    1.1288882   -4.7214841    6.2014298     2.608834 
 5250000   0.80039206  -0.34481463    1.4827524    1.1299237   -4.7214302    6.2041826    2.6126762 
 5260000   0.79227548  -0.23216958    1.4994324    1.1184654   -4.7035808    6.2030132    2.6178979 
 5270000   0.79752946   -0.2730809    1.4757959    1.1258826   -4.7261852    6.2019811    2.6016784 
 5280000   0.80111762  -0.30197319    1.4926161     1.130948   -4.7141961    6.2068122    2.6235641 
 5290000   0.80489902  -0.29903712    1.4843365    1.1362862   -4.7175567    6.2018932    2.6206228 
 5300000   0.79742843   -0.3135681    1.4857225    1.1257399   -4.7203253    6.2060478    2.6114624 
 5310000   0.79540661  -0.30700032    1.4851831    1.1228857   -4.7163494    6.2015324    2.6080688 
 5320000    0.7985679  -0.29230923    1.4829583    1.1273485   -4.7209939    6.2039523    2.6103069 
 5330000   0.79179506  -0.25961055    1.4877631    1.1177872   -4.7135021    6.2012652    2.6055503 
 5340000   0.80634246  -0.29322663    1.4930786     1.138324   -4.7103171    6.2033957    2.6314026 
 5350000   0.80050883  -0.20825357    1.5039718    1.1300886   -4.7042472     6.208219    2.6340603 
 5360000   0.79429354  -0.30064383    1.4892208    1.1213144   -4.7147093    6.2039301    2.6105352 
 5370000   0.80202357  -0.32073501    1.4912762    1.1322269   -4.7136486    6.2049248    2.6235031 
 5380000   0.80215799  -0.30364303    1.4879001    1.1324167    -4.716982    6.2048821    2.6203168 
 5390000   0.79527986  -0.25482604    1.4930199    1.1227068   -4.7105737    6.2035936    2.6157266 
 5400000   0.79616627  -0.27141717    1.4824995    1.1239581   -4.7232924    6.2057919    2.6064576 
 5410000   0.79738352  -0.23224604     1.496111    1.1256765   -4.7112178    6.2073288    2.6217875 
 5420000   0.80119985  -0.29185219    1.4931377    1.1310641   -4.7108672    6.2040049    2.6242018 
 5430000   0.80523115   -0.2386771    1.4895072    1.1367551   -4.7150813    6.2045885    2.6262624 
 5440000   0.79942445  -0.26314179    1.4927888    1.1285577   -4.7118555    6.2046443    2.6213465 
 5450000   0.78918915  -0.33369735    1.4874537    1.1141084   -4.7182651    6.2057188    2.6015622 
 5460000   0.80758923  -0.26398567     1.492324    1.1400841   -4.7133982    6.2057222     2.632408 
 5470000    0.7978523  -0.27577025    1.4870783    1.1263383   -4.7139919    6.2010702    2.6134166 
 5480000   0.79543562  -0.30382997    1.4842121    1.1229266   -4.7155137    6.1997258    2.6071388 
 5490000    0.8020889   -0.2145283    1.4816176    1.1323192   -4.7228849    6.2045025    2.6139368 
 5500000   0.80004855  -0.27894835    1.4820803    1.1294388    -4.718154    6.2002343    2.6115191 
 5510000   0.80501642  -0.29829752    1.4907611     1.136452   -4.7155481    6.2063092    2.6272131 
 5520000   0.79946217  -0.23643896    1.4861583     1.128611   -4.7185017      6.20466    2.6147692 
 5530000   0.80747775  -0.22866212    1.4891282    1.1399267   -4.7141876    6.2033157    2.6290548 
 5540000   0.80383901  -0.30330614    1.4791825    1.1347898   -4.7243615    6.2035439    2.6139723 
 5550000   0.79228812  -0.30700394     1.484137    1.1184833   -4.7172622    6.2013992    2.6026203 
 5560000    0.7973198  -0.22123964    1.4875268    1.1255866   -4.7165509    6.2040777    2.6131133 
 5570000   0.79604113   -0.3105115    1.4798777    1.1237815   -4.7270023    6.2068801    2.6036592 
 5580000   0.79889335  -0.29696247    1.4811674     1.127808   -4.7231618    6.2043292    2.6089754 
 5590000   0.80791137  -0.27515659    1.4843063    1.1405388   -4.7204121    6.2047183    2.6248451 
 5600000   0.79538143  -0.23182645    1.4866623    1.1228501   -4.7184362    6.2050985    2.6095124 
 5610000   0.79386934  -0.31732243    1.4864333    1.1207155     -4.71866    6.2050933    2.6071488 
 5620000   0.79467916  -0.30792274    1.4741662    1.1218587   -4.7275852    6.2017514    2.5960249 
 5630000    0.8025622    -0.307025    1.4801164    1.1329873   -4.7226858    6.2028021    2.6131037 
 5640000   0.79879037  -0.26334069    1.4904263    1.1276626   -4.7132653    6.2036916    2.6180889 
 5650000   0.80100446  -0.27966205     1.488415    1.1307882   -4.7172568    6.2056718    2.6192032 
 5660000   0.79765512  -0.30951082     1.481494    1.1260599   -4.7222843    6.2037783     2.607554 
 5670000   0.80136236  -0.32725568    1.4779055    1.1312935   -4.7238353    6.2017408     2.609199 
 5680000   0.79492185  -0.32470532     1.491189    1.1222013   -4.7143711    6.2055601    2.6133903 
 5690000   0.79350784  -0.24490569    1.4955752    1.1202052   -4.7070643    6.2026395    2.6157803 
 5700000   0.80182778  -0.25307789    1.4879854    1.1319505   -4.7158442    6.2038297     2.619936 
 5710000   0.79776932  -0.29561143    1.4877412    1.1262212   -4.7155417     6.203283    2.6139624 
 5720000   0.79613415  -0.31196386    1.4781344    1.1239128   -4.7249218    6.2030563    2.6020472 
 5730000   0.79224209  -0.31244411    1.4876235    1.1184183    -4.715698    6.2033215    2.6060418 
 5740000   0.79909495  -0.34148373    1.4803885    1.1280926   -4.7210096    6.2013981    2.6084811 
 5750000   0.80551801  -0.28418903    1.4834689    1.1371601   -4.7235499    6.2070188     2.620629 
 5760000    0.8028304  -0.22381782    1.4896533    1.1333659   -4.7088164    6.1984697    2.6230193 
 5770000   0.80377826  -0.23622373    1.4865186    1.1347041   -4.7167921    6.2033107    2.6212226 
 5780000   0.79724948  -0.31201059    1.4826236    1.1254873   -4.7219846    6.2046082    2.6081109 
 5790000   0.78914998  -0.30918063    1.4848736    1.1140531   -4.7184765    6.2033501    2.5989267 
 5800000   0.80336666  -0.23893623    1.4845762     1.134123   -4.7184282    6.2030044    2.6186992 
 5810000   0.79897454  -0.30291894    1.4879848    1.1279226   -4.7139572     6.201942    2.6159074 
 5820000   0.80047124  -0.34866163    1.4837552    1.1300355   -4.7189392    6.2026944    2.6137907 
 5830000   0.79779898   -0.2315845    1.4907979     1.126263   -4.7131353    6.2039332    2.6170609 
 5840000   0.80167773  -0.29763091    1.4895013    1.1317387   -4.7147434    6.2042447      2.62124 
 5850000   0.80290898  -0.26776321    1.4870902    1.1334769   -4.7152312    6.2023213     2.620567 
 5860000   0.79581705  -0.31329008      1.48721    1.1234651   -4.7154131    6.2026231    2.6106751 
 5870000    0.7899843  -0.26646798    1.4848785     1.115231   -4.7159794    6.2008579    2.6001094 
 5880000   0.80487356  -0.29671546     1.489399    1.1362503   -4.7129524    6.2023514    2.6256493 
 5890000   0.80034402  -0.22526242    1.4888064    1.1298559   -4.7148769    6.2036833    2.6186623 
 5900000   0.80118726  -0.26020225    1.4793427    1.1310463    -4.723514    6.2028567     2.610389 
 5910000   0.79804093  -0.24436408    1.4850589    1.1266046   -4.7206065    6.2056655    2.6116635 
 5920000   0.80016343   -0.3020441    1.4897326     1.129601   -4.7127209    6.2024534    2.6193335 
 5930000   0.79731469  -0.25398318     1.492662    1.1255794   -4.7110952    6.2037572    2.6182413 
 5940000   0.79880002  -0.26701395    1.4838255    1.1276762   -4.7184666    6.2022922    2.6115017 
 5950000   0.79975579  -0.21645353    1.4915106    1.1290255   -4.7123862    6.2038968    2.6205361 
 5960000   0.79542516  -0.28869405    1.4812694    1.1229119   -4.7215434    6.2028128    2.6041813 
 5970000   0.79974135  -0.26395099    1.4882091    1.1290051   -4.7148716    6.2030806    2.6172142 
 5980000   0.80097052  -0.25466486    1.4866188    1.1307403   -4.7152919    6.2019107    2.6173592 
 5990000    0.8051729  -0.25126871    1.4914272    1.1366729    -4.711003    6.2024302    2.6281001 
 6000000   0.80209262  -0.30762127    1.4814748    1.1323244   -4.7191563    6.2006311    2.6137992 
Loop time of 57109.2 on 216 procs for 6000000 steps with 28900 atoms

Performance: 45386.704 tau/day, 105.062 timesteps/s
99.9% CPU use with 216 MPI tasks x 1 OpenMP threads

MPI task timing breakdown:
Section |  min time  |  avg time  |  max time  |%varavg| %total
---------------------------------------------------------------
Pair    | 691.53     | 810.72     | 1127.5     | 247.6 |  1.42
Bond    | 15.063     | 18.042     | 23.59      |  35.6 |  0.03
Kspace  | 49635      | 50079      | 50248      |  41.9 | 87.69
Neigh   | 744.32     | 783.39     | 829.87     |  60.6 |  1.37
Comm    | 1295.7     | 1567.4     | 1849.3     | 318.0 |  2.74
Output  | 2.7955     | 2.8358     | 2.8474     |   0.4 |  0.00
Modify  | 3165.6     | 3315       | 3493.1     | 146.7 |  5.80
Other   |            | 533.1      |            |       |  0.93

Nlocal:    133.796 ave 184 max 111 min
Histogram: 25 43 54 35 24 13 14 4 1 3
Nghost:    973.528 ave 1188 max 877 min
Histogram: 9 37 65 61 25 7 7 2 2 1
Neighs:    4951.07 ave 9171 max 3467 min
Histogram: 31 70 39 37 17 14 4 2 1 1

Total # of neighbors = 1069432
Ave neighs/atom = 37.0046
Ave special neighs/atom = 0.602076
Neighbor list builds = 807305
Dangerous builds = 0
System init for write_restart ...
PPPM initialization ...
  using 12-bit tables for long-range coulomb (src/kspace.cpp:332)
  G vector (1/distance) = 1.14614
  grid = 90 90 90
  stencil order = 5
  estimated absolute RMS force accuracy = 0.000111057
  estimated relative force accuracy = 0.000111057
  using double precision FFTW3
  3d grid and FFT values/proc = 8000 3600
WARNING: Neighbor exclusions used with KSpace solver may give inconsistent Coulombic energies (src/neighbor.cpp:486)
Neighbor list info ...
  update every 1 steps, delay 0 steps, check yes
  max neighbors/atom: 2000, page size: 100000
  master list distance cutoff = 2.8
  ghost atom cutoff = 2.8
  binsize = 1.4, bins = 24 24 24
  12 neighbor lists, perpetual/occasional/extra = 2 10 0
  (1) pair lj/cut, perpetual
      attributes: half, newton on
      pair build: half/bin/newton
      stencil: half/bin/3d/newton
      bin: standard
  (2) pair coul/long, perpetual, skip from (1)
      attributes: half, newton on
      pair build: skip
      stencil: none
      bin: none
  (3) compute rdf, occasional, copy from (1)
      attributes: half, newton on
      pair build: copy
      stencil: none
      bin: none
  (4) compute rdf, occasional, copy from (1)
      attributes: half, newton on
      pair build: copy
      stencil: none
      bin: none
  (5) compute rdf, occasional, copy from (1)
      attributes: half, newton on
      pair build: copy
      stencil: none
      bin: none
  (6) compute rdf, occasional, copy from (1)
      attributes: half, newton on
      pair build: copy
      stencil: none
      bin: none
  (7) compute rdf, occasional, copy from (1)
      attributes: half, newton on
      pair build: copy
      stencil: none
      bin: none
  (8) compute rdf, occasional, copy from (1)
      attributes: half, newton on
      pair build: copy
      stencil: none
      bin: none
  (9) compute rdf, occasional, copy from (1)
      attributes: half, newton on
      pair build: copy
      stencil: none
      bin: none
  (10) compute rdf, occasional, copy from (1)
      attributes: half, newton on
      pair build: copy
      stencil: none
      bin: none
  (11) compute rdf, occasional, copy from (1)
      attributes: half, newton on
      pair build: copy
      stencil: none
      bin: none
  (12) compute rdf, occasional, copy from (1)
      attributes: half, newton on
      pair build: copy
      stencil: none
      bin: none
PPPM initialization ...
  using 12-bit tables for long-range coulomb (src/kspace.cpp:332)
  G vector (1/distance) = 1.14614
  grid = 90 90 90
  stencil order = 5
  estimated absolute RMS force accuracy = 0.000111057
  estimated relative force accuracy = 0.000111057
  using double precision FFTW3
  3d grid and FFT values/proc = 8000 3600
WARNING: Neighbor exclusions used with KSpace solver may give inconsistent Coulombic energies (src/neighbor.cpp:486)
Neighbor list info ...
  update every 1 steps, delay 0 steps, check yes
  max neighbors/atom: 2000, page size: 100000
  master list distance cutoff = 2.8
  ghost atom cutoff = 2.8
  binsize = 1.4, bins = 24 24 24
  12 neighbor lists, perpetual/occasional/extra = 2 10 0
  (1) pair lj/cut, perpetual
      attributes: half, newton on
      pair build: half/bin/newton
      stencil: half/bin/3d/newton
      bin: standard
  (2) pair coul/long, perpetual, skip from (1)
      attributes: half, newton on
      pair build: skip
      stencil: none
      bin: none
  (3) compute rdf, occasional, copy from (1)
      attributes: half, newton on
      pair build: copy
      stencil: none
      bin: none
  (4) compute rdf, occasional, copy from (1)
      attributes: half, newton on
      pair build: copy
      stencil: none
      bin: none
  (5) compute rdf, occasional, copy from (1)
      attributes: half, newton on
      pair build: copy
      stencil: none
      bin: none
  (6) compute rdf, occasional, copy from (1)
      attributes: half, newton on
      pair build: copy
      stencil: none
      bin: none
  (7) compute rdf, occasional, copy from (1)
      attributes: half, newton on
      pair build: copy
      stencil: none
      bin: none
  (8) compute rdf, occasional, copy from (1)
      attributes: half, newton on
      pair build: copy
      stencil: none
      bin: none
  (9) compute rdf, occasional, copy from (1)
      attributes: half, newton on
      pair build: copy
      stencil: none
      bin: none
  (10) compute rdf, occasional, copy from (1)
      attributes: half, newton on
      pair build: copy
      stencil: none
      bin: none
  (11) compute rdf, occasional, copy from (1)
      attributes: half, newton on
      pair build: copy
      stencil: none
      bin: none
  (12) compute rdf, occasional, copy from (1)
      attributes: half, newton on
      pair build: copy
      stencil: none
      bin: none
Setting up Verlet run ...
  Unit style    : lj
  Current step  : 6000000
  Time step     : 0.005
Per MPI rank memory allocation (min/avg/max) = 17.72 | 19.33 | 19.76 Mbytes
Step Lx Ly Lz Press Pxx Pyy Pzz PotEng Temp 
 6000000    32.848783    32.848783    32.848783  -0.15559597   0.09618946  -0.14565545  -0.41732194    1.4814748   0.80209262 
 6000010    33.505758    32.525142    32.525142  -0.22327447   -1.0910272   0.12422475   0.29697908    1.4977936    0.8043575 
 6000020    34.162734    32.210882    32.210882  -0.12906712   -1.1643078   0.35727848    0.4198279    1.5134464   0.82085013 
 6000030     34.81971    31.905558    31.905558 -0.035466274   -1.2318293   0.52641279   0.59901766    1.5389568   0.83078076 
 6000040    35.476685    31.608756    31.608756  0.059098924   -1.3303425   0.76157538   0.74606393    1.5535989    0.8517642 
 6000050    36.133661    31.320085    31.320085  0.087514471   -1.2817019   0.79634943   0.74789593    1.5688449   0.87207737 
 6000060    36.790637    31.039182    31.039182   0.17696196   -1.1612154   0.85309353   0.83900774    1.5903117    0.8856812 
 6000070    37.447612    30.765704    30.765704   0.28144711   -1.0840038   0.96418827   0.96415687    1.6067848    0.9010859 
 6000080    38.104588    30.499329    30.499329   0.30945752   -1.0260355   0.94953148    1.0048765    1.6259772   0.91397033 
 6000090    38.761564    30.239756    30.239756   0.43584742  -0.88815619    1.0892039    1.1064945    1.6347651   0.93246553 
 6000100    39.418539    29.986699    29.986699   0.47822708  -0.89321864    1.1842161    1.1436838    1.6519917   0.94489206 
Loop time of 1.11135 on 216 procs for 100 steps with 28900 atoms

Performance: 38871.702 tau/day, 89.981 timesteps/s
99.9% CPU use with 216 MPI tasks x 1 OpenMP threads

MPI task timing breakdown:
Section |  min time  |  avg time  |  max time  |%varavg| %total
---------------------------------------------------------------
Pair    | 0.0073705  | 0.012997   | 0.03678    |   3.8 |  1.17
Bond    | 0.00010133 | 0.0002304  | 0.00041771 |   0.0 |  0.02
Kspace  | 0.77818    | 0.80199    | 0.81353    |   0.8 | 72.16
Neigh   | 0.047819   | 0.049665   | 0.052412   |   0.5 |  4.47
Comm    | 0.033481   | 0.042858   | 0.054616   |   2.1 |  3.86
Output  | 0.0043821  | 0.0074946  | 0.010497   |   1.2 |  0.67
Modify  | 0.10911    | 0.13096    | 0.16521    |   3.3 | 11.78
Other   |            | 0.06515    |            |       |  5.86

Nlocal:    133.796 ave 191 max 106 min
Histogram: 8 33 69 41 33 18 8 1 3 2
Nghost:    978.574 ave 1175 max 878 min
Histogram: 3 31 60 62 34 10 11 2 2 1
Neighs:    4957.21 ave 9546 max 3412 min
Histogram: 29 66 53 36 19 6 3 2 1 1

Total # of neighbors = 1070758
Ave neighs/atom = 37.0504
Ave special neighs/atom = 0.602076
Neighbor list builds = 49
Dangerous builds = 0
PPPM initialization ...
  using 12-bit tables for long-range coulomb (src/kspace.cpp:332)
  G vector (1/distance) = 1.13606
  grid = 100 81 81
  stencil order = 5
  estimated absolute RMS force accuracy = 0.000129626
  estimated relative force accuracy = 0.000129626
  using double precision FFTW3
  3d grid and FFT values/proc = 8303 3500
WARNING: Neighbor exclusions used with KSpace solver may give inconsistent Coulombic energies (src/neighbor.cpp:486)
Neighbor list info ...
  update every 1 steps, delay 0 steps, check yes
  max neighbors/atom: 2000, page size: 100000
  master list distance cutoff = 2.8
  ghost atom cutoff = 2.8
  binsize = 1.4, bins = 29 22 22
  12 neighbor lists, perpetual/occasional/extra = 2 10 0
  (1) pair lj/cut, perpetual
      attributes: half, newton on
      pair build: half/bin/newton
      stencil: half/bin/3d/newton
      bin: standard
  (2) pair coul/long, perpetual, skip from (1)
      attributes: half, newton on
      pair build: skip
      stencil: none
      bin: none
  (3) compute rdf, occasional, copy from (1)
      attributes: half, newton on
      pair build: copy
      stencil: none
      bin: none
  (4) compute rdf, occasional, copy from (1)
      attributes: half, newton on
      pair build: copy
      stencil: none
      bin: none
  (5) compute rdf, occasional, copy from (1)
      attributes: half, newton on
      pair build: copy
      stencil: none
      bin: none
  (6) compute rdf, occasional, copy from (1)
      attributes: half, newton on
      pair build: copy
      stencil: none
      bin: none
  (7) compute rdf, occasional, copy from (1)
      attributes: half, newton on
      pair build: copy
      stencil: none
      bin: none
  (8) compute rdf, occasional, copy from (1)
      attributes: half, newton on
      pair build: copy
      stencil: none
      bin: none
  (9) compute rdf, occasional, copy from (1)
      attributes: half, newton on
      pair build: copy
      stencil: none
      bin: none
  (10) compute rdf, occasional, copy from (1)
      attributes: half, newton on
      pair build: copy
      stencil: none
      bin: none
  (11) compute rdf, occasional, copy from (1)
      attributes: half, newton on
      pair build: copy
      stencil: none
      bin: none
  (12) compute rdf, occasional, copy from (1)
      attributes: half, newton on
      pair build: copy
      stencil: none
      bin: none
Setting up Verlet run ...
  Unit style    : lj
  Current step  : 6000100
  Time step     : 0.005
Per MPI rank memory allocation (min/avg/max) = 17.69 | 19.33 | 19.77 Mbytes
Step Lx Ly Lz Press Pxx Pyy Pzz PotEng Temp 
 6000100    39.418539    29.986699    29.986699   0.78919066  -0.97713101    1.5027132    1.8419898    1.6549976   0.94489206 
 6010000    39.418539    29.986699    29.986699  -0.29189278  -0.30340071  -0.28281958  -0.28945805    1.4907354    0.8039083 
 6020000    39.418539    29.986699    29.986699  -0.28905243  -0.24937048  -0.33358021  -0.28420658    1.4833834   0.79526772 
 6030000    39.418539    29.986699    29.986699  -0.30780576  -0.32940513  -0.28895039  -0.30506174    1.4858613   0.79883306 
 6040000    39.418539    29.986699    29.986699  -0.25606389  -0.25923624  -0.30681132   -0.2021441    1.4950684   0.80110455 
 6050000    39.418539    29.986699    29.986699  -0.25963919  -0.28041926  -0.27334997  -0.22514834    1.4857684   0.80046316 
 6060000    39.418539    29.986699    29.986699  -0.28134884  -0.29113941  -0.28488879  -0.26801833    1.4883674   0.79440189 
 6070000    39.418539    29.986699    29.986699  -0.28784991  -0.25874056  -0.32312182  -0.28168733    1.4831466   0.80169158 
 6080000    39.418539    29.986699    29.986699   -0.2738887  -0.24340924  -0.27908761  -0.29916925    1.4897303   0.80314751 
 6090000    39.418539    29.986699    29.986699  -0.27489648  -0.26310513  -0.31136288  -0.25022143    1.4851956   0.79721545 
 6100000    39.418539    29.986699    29.986699  -0.29488019  -0.31221386  -0.30857024  -0.26385648    1.4829533   0.79777896 
 6100100    39.418539    29.986699    29.986699  -0.31278494  -0.35938528   -0.2673072  -0.31166235    1.4839159   0.79315048 
Loop time of 901.659 on 216 procs for 100000 steps with 28900 atoms

Performance: 47911.689 tau/day, 110.907 timesteps/s
99.9% CPU use with 216 MPI tasks x 1 OpenMP threads

MPI task timing breakdown:
Section |  min time  |  avg time  |  max time  |%varavg| %total
---------------------------------------------------------------
Pair    | 8.2494     | 12.921     | 27.817     |  97.4 |  1.43
Bond    | 0.12366    | 0.24619    | 0.42561    |   9.6 |  0.03
Kspace  | 776.39     | 793.7      | 803.55     |  16.8 | 88.03
Neigh   | 12.612     | 13.229     | 14.039     |   8.4 |  1.47
Comm    | 24.551     | 31.428     | 40.12      |  54.0 |  3.49
Output  | 0.042215   | 0.042267   | 0.043011   |   0.0 |  0.00
Modify  | 36.297     | 40.378     | 44.576     |  26.0 |  4.48
Other   |            | 9.717      |            |       |  1.08

Nlocal:    133.796 ave 207 max 107 min
Histogram: 13 64 70 34 17 12 3 1 0 2
Nghost:    979.588 ave 1190 max 885 min
Histogram: 12 41 61 47 30 15 6 2 0 2
Neighs:    4948.57 ave 9980 max 3304 min
Histogram: 23 80 56 27 17 5 4 1 1 2

Total # of neighbors = 1068891
Ave neighs/atom = 36.9858
Ave special neighs/atom = 0.602076
Neighbor list builds = 13444
Dangerous builds = 0
Total wall time: 18:40:53
