950
Atoms. Timestep: 0
H 1.491560 7.688460 29.094000
H 2.156150 7.366710 29.819600
H 1.366730 7.692370 31.326500
H 2.398420 7.231930 30.817100
H 1.368080 7.715600 30.326800
H 2.153440 7.320240 31.819100
H 1.486870 7.607970 32.557100
H 29.174000 3.916260 0.851591
H 29.187400 3.937910 0.843870
H 28.850300 3.914490 29.423400
H 28.829500 4.032830 29.419700
H 28.410700 2.076790 31.419400
H 28.454100 2.250360 30.459600
H 28.401300 2.356230 30.422500
H 28.461200 1.993290 31.462400
H 28.554600 3.072190 29.690600
H 28.596500 2.953560 29.713200
H 28.704900 3.170800 30.916800
H 28.733200 3.082870 30.938200
H 28.919000 4.009100 30.415400
H 28.931300 3.914930 30.420100
H 29.008500 3.985370 31.411100
H 29.012200 3.915380 31.416800
H 29.147500 4.875650 29.667600
H 29.152300 4.980770 29.682400
H 29.210300 4.747440 30.898700
H 29.222500 4.823680 30.909700
H 29.408400 5.579510 30.380600
H 29.436600 5.661980 30.408300
H 29.606200 5.893950 31.402900
H 29.563100 5.837470 31.371200
H 28.616000 2.251240 32.453000
H 28.580300 2.308760 32.414000
H 28.794400 3.147070 31.912500
H 28.814100 3.083310 31.934900
H 28.876900 2.955100 33.166000
H 28.864600 2.989980 33.139900
H 29.093100 3.915820 32.413500
H 29.097900 3.961640 32.406800
H 29.312000 4.799950 31.905400
H 29.291200 4.747890 31.895400
H 29.462300 4.898560 33.131600
H 29.427800 4.877190 33.120400
H 29.615600 5.614520 32.399700
H 29.570300 5.580400 32.374100
H 32.231800 8.521020 29.110800
H 33.141400 8.110960 28.834500
H 31.320300 8.897060 30.850900
H 31.565300 8.808750 29.848900
H 33.140000 8.087730 29.834300
H 33.138700 8.064500 30.834000
H 32.352000 8.436620 30.341400
H 32.350600 8.413390 31.341200
H 33.136000 8.018030 32.833500
H 33.137300 8.041260 31.833700
H 31.562500 8.762280 31.848300
H 32.227100 8.440530 32.574000
H 1.358040 2.100030 13.333000
H 1.893540 2.425480 12.668100
H 2.011660 2.499360 12.636500
H 2.832260 3.089380 12.412200
H 2.716160 2.989630 12.390900
H 3.507340 3.606690 12.646000
H 3.599940 3.711980 12.720100
H 4.055070 4.111330 13.365100
H 1.259910 2.065420 13.403400
H 1.046520 1.998380 14.315100
H 0.985028 2.005910 14.399700
H 2.323230 2.855180 13.517600
H 1.929360 2.626270 13.890500
H 1.870690 2.725010 14.883900
H 1.840660 2.604680 14.356900
H 2.657490 3.088370 13.384200
H 3.117370 3.461480 13.559400
H 4.109020 4.200340 13.477900
H 2.634800 3.210990 14.398700
H 2.598820 3.187120 14.377600
H 3.326950 3.649220 13.871400
H 3.268270 3.747970 14.864800
H 3.428940 3.817290 14.440500
H 4.223080 4.423600 14.482300
H 4.212610 4.368320 14.355500
H 1.160580 2.221640 15.319500
H 1.142560 2.262910 15.390200
H 2.152230 2.960490 15.238000
H 1.690300 2.767550 16.109300
H 2.437340 3.332600 16.385200
H 2.481480 3.384610 16.364400
H 1.669650 2.710000 16.077300
H 2.540150 3.285860 15.371000
H 2.946370 3.566800 15.279800
H 3.937730 4.308820 15.351900
H 3.911560 4.321950 15.464400
H 3.304090 3.948750 16.087200
H 3.257930 3.922610 16.160900
H 3.582190 7.224860 11.521800
H 4.463830 7.210120 10.979300
H 5.282370 7.706470 10.585000
H 4.228400 9.117570 11.532700
H 4.346110 8.163850 11.256000
H 5.928580 9.599180 10.595900
H 5.818510 8.580930 10.444700
H 5.023460 8.849250 10.988700
H 5.583090 10.488400 10.998100
H 4.874610 11.010300 11.543500
H 4.905740 9.802980 11.265400
H 2.873710 7.746760 12.067200
H 2.528220 8.635960 12.469400
H 3.551060 8.432170 11.799900
H 2.638290 9.654210 12.620600
H 3.433340 9.385890 12.076600
H 3.174420 10.528700 12.480300
H 3.992970 11.025000 12.086000
H 4.110690 10.071300 11.809300
H 2.501760 13.131100 7.533590
H 1.879370 12.848100 6.756150
H 1.018690 12.991700 6.198980
H 1.745890 13.785400 7.555890
H 0.990030 14.439800 7.578200
H 1.004360 13.715800 6.888590
H 1.731560 14.509500 8.245500
H 0.975698 15.163800 8.267810
H 2.473090 14.579200 8.912800
H 2.719070 13.764700 8.322980
H 0.961365 15.887900 8.957420
H 1.829730 15.356300 9.145030
H 10.851400 5.695170 7.228830
H 10.833800 5.736400 7.294690
H 9.415530 5.818560 8.615630
H 9.383360 5.862580 8.665960
H 10.138900 5.539230 8.036370
H 10.164700 5.496590 7.977710
H 9.931610 7.439320 7.563560
H 9.912440 7.481850 7.618050
H 10.649500 7.377630 6.870160
H 10.597100 6.941550 7.128860
H 10.391500 6.567250 7.396190
H 11.291600 6.361100 6.569630
H 11.281800 6.401260 6.639660
H 10.025700 6.510540 7.827210
H 11.362900 7.355660 6.246790
H 10.483900 7.912860 6.919700
H 11.367400 7.315940 6.176760
H 9.698540 9.382060 7.149400
H 9.685960 9.424470 7.199730
H 9.471730 8.311400 7.730920
H 9.011850 9.183470 7.898290
H 8.991090 9.227300 7.941410
H 9.799200 8.453160 7.408890
H 10.189600 8.249700 7.037520
H 10.441500 9.101110 6.570150
H 10.447700 9.060090 6.511490
H 11.055300 8.343880 6.221350
H 11.058500 8.303830 6.155480
H 8.769560 6.619820 9.014760
H 9.673570 6.628940 8.089590
H 9.213690 7.501020 8.256960
H 9.341000 7.050830 8.316400
H 8.462000 7.608030 8.989310
H 8.495770 7.562710 8.950360
H 8.804670 6.574810 8.971640
H 9.227760 8.022140 8.107250
H 8.571610 8.517540 8.557480
H 8.543090 8.562440 8.596440
H 7.947030 30.919400 21.665800
H 8.696070 31.210900 22.294900
H 7.975630 30.949700 21.652400
H 8.667460 31.185300 22.306300
H 8.478630 31.727200 21.189400
H 9.192510 32.415000 21.205400
H 8.443210 31.700600 21.201800
H 9.290200 31.933100 22.076100
H 9.232950 32.436300 21.194800
H 9.324730 31.954200 22.066100
H 10.036400 32.887000 21.667000
H 9.994160 32.871100 21.675600
H 7.836930 30.280600 22.473000
H 7.858700 30.312200 22.459700
H 8.787850 30.728800 23.166200
H 9.508290 30.989900 23.808700
H 9.485560 30.969200 23.817600
H 8.765140 30.703300 23.177100
H 8.142400 29.955500 23.407300
H 8.159190 29.985500 23.395000
H 9.387880 31.451100 22.946900
H 8.796580 30.057100 24.207700
H 8.781600 30.031200 24.218200
H 9.416510 31.472000 22.937400
H 10.633400 32.946800 22.486500
H 10.045200 32.215300 22.708500
H 10.673800 32.958600 22.479700
H 10.974300 32.631900 23.415000
H 10.938800 32.621600 23.420700
H 10.137000 31.733200 23.579800
H 10.108300 31.717000 23.587400
H 10.010600 32.199000 22.716700
H 10.828700 31.982900 24.228000
H 10.857400 31.994400 24.222300
H 9.600070 30.507800 24.680000
H 9.583250 30.487300 24.688400
H 10.332500 31.201700 24.692000
H 10.354400 31.216900 24.685300
H 12.391300 4.886380 28.752100
H 12.732800 5.747930 29.127800
H 12.090400 5.611140 28.076800
H 12.875200 4.623320 29.628700
H 13.243300 5.750960 29.987700
H 13.858900 5.621640 31.055500
H 13.412400 4.892440 30.471800
H 13.890400 11.478200 8.166540
H 13.611600 10.618900 8.709420
H 13.659000 10.630300 8.713620
H 14.766900 11.150600 8.519420
H 14.721200 11.131300 8.504280
H 13.910900 9.825770 9.303650
H 13.959200 9.834020 9.303210
H 14.801300 10.328500 9.087750
H 14.754400 10.313600 9.079070
H 13.844500 11.461000 8.154060
H 16.485400 11.317600 8.656830
H 15.631100 9.983870 9.429290
H 15.677700 10.001000 9.440620
H 16.474700 10.471700 9.204720
H 16.519800 10.495500 9.225170
H 15.643300 10.823100 8.872290
H 15.598000 10.801500 8.854500
H 16.441500 11.289400 8.629920
H 14.662200 9.294040 9.777530
H 14.710800 9.302770 9.777330
H 15.664300 9.166240 10.004100
H 15.712200 9.178880 10.009000
H 16.648600 9.476600 9.922610
H 16.695100 9.495540 9.936010
H 12.053200 6.603410 27.783800
H 12.563700 6.606440 28.643700
H 12.905100 7.467980 29.019500
H 12.289500 7.597290 27.951700
H 13.074200 6.609470 29.503600
H 12.736000 8.326490 28.535300
H 13.273200 8.595620 29.378400
H 13.415600 7.471010 29.879300
H 13.584700 6.612500 30.363500
H 14.095200 6.615530 31.223300
H 14.057900 7.607790 30.930300
H 13.757100 8.332550 30.255100
H 14.547300 12.126400 7.786380
H 14.591500 12.150600 7.808570
H 15.531600 12.436800 7.704900
H 15.574500 12.467200 7.735630
H 16.533700 12.309000 7.931460
H 16.575900 12.343300 7.967250
H 15.564800 11.619100 8.279700
H 15.608900 11.645100 8.303960
H 14.970800 29.926200 27.073400
H 14.060700 29.936300 27.566800
H 16.887000 29.856300 27.641900
H 16.005300 29.896900 27.100900
H 13.518900 29.924600 28.448900
H 14.747900 29.895500 28.292100
H 14.462800 29.874500 29.250400
H 13.490500 29.894200 29.483300
H 15.435100 29.854800 29.017400
H 15.720200 29.875800 28.059200
H 16.407400 29.835100 28.784500
H 13.983200 29.853200 30.392900
H 15.150000 29.833700 29.975700
H 14.864900 29.812600 30.934000
H 16.809500 29.773200 30.468100
H 15.899400 29.783400 30.961500
H 16.122300 29.814000 29.742800
H 18.579800 3.860710 19.501200
H 18.519100 3.939440 19.616500
H 17.931100 4.326330 20.375700
H 17.965800 4.263420 20.231000
H 19.417700 3.538950 19.294000
H 19.487900 3.451010 19.219400
H 20.061900 3.489350 20.317200
H 19.098500 3.914080 20.431200
H 19.128500 3.847660 20.337200
H 20.385900 3.232190 19.494400
H 20.446600 3.144090 19.461100
H 20.031900 3.560450 20.370200
H 21.199200 3.022190 20.161600
H 21.164500 3.101330 20.164200
H 18.744400 4.242340 21.306900
H 18.743700 4.192910 21.193200
H 19.292300 4.179860 22.029200
H 19.677800 3.888710 21.245900
H 19.677100 3.834600 21.173200
H 19.323800 4.216980 22.121600
H 20.225700 3.821550 22.009100
H 20.257200 3.863350 22.060600
H 20.611200 3.535080 21.184900
H 20.610500 3.476290 21.153100
H 21.544600 3.181460 21.123800
H 21.543900 3.117980 21.133100
H 21.424600 3.451090 22.116200
H 21.388400 3.405790 22.115300
H 17.811000 4.595970 21.368000
H 17.810300 4.551220 21.213300
H 18.155000 4.647010 22.184800
H 18.191200 4.676090 22.327600
H 19.938000 4.238470 23.197800
H 19.866300 4.218190 23.126900
H 20.836500 3.837980 22.875300
H 20.774300 3.808490 22.845100
H 18.907500 4.525110 22.885200
H 18.969700 4.545240 22.997400
H 18.793200 1.818940 27.826500
H 18.836000 1.793530 27.784300
H 19.530900 1.288040 27.206900
H 19.475200 1.286850 27.257600
H 20.433700 1.170190 26.884100
H 20.494900 1.194860 26.841000
H 20.470400 2.003730 27.435400
H 20.033000 2.057410 27.601700
H 21.002400 2.182870 27.390600
H 21.411800 1.500230 26.806000
H 21.469700 1.538950 26.784800
H 21.327400 2.512900 27.515400
H 22.147600 2.188520 27.044200
H 22.194100 2.228120 27.053200
H 21.504600 2.952240 27.785500
H 19.650200 2.328110 27.906600
H 18.570500 2.623890 28.438300
H 18.596400 2.575870 28.418600
H 18.876400 3.425450 28.939800
H 18.866700 3.486020 28.929000
H 19.565800 2.701330 28.207600
H 20.068000 3.470700 28.602400
H 19.686900 3.161650 28.457800
H 20.543900 3.670810 28.537900
H 19.602400 4.174320 29.167200
H 19.600800 4.114610 29.208300
H 20.535200 2.826780 27.996500
H 20.507100 2.837270 27.986600
H 21.037400 3.596150 28.391400
H 21.364100 3.346440 28.066600
H 22.221000 3.855600 28.146700
H 22.234500 3.860040 28.208800
H 20.575600 4.458700 29.152100
H 20.580600 4.504350 29.089100
H 21.539100 4.387690 28.715600
H 21.539600 4.365520 28.786200
H 19.614100 9.587460 1.924790
H 19.618900 9.558480 1.963260
H 18.837500 11.240700 1.109970
H 18.875500 11.206100 1.107330
H 19.214200 10.733300 2.176080
H 19.227300 10.712500 2.188320
H 19.230000 10.297200 1.276280
H 19.254500 10.261400 1.296270
H 19.871100 9.285640 2.929580
H 19.886700 9.301530 2.881730
H 19.974800 9.516070 3.890700
H 19.943500 9.516020 3.936310
H 19.198300 11.169300 3.075880
H 19.542500 10.235400 2.978810
H 19.535600 10.224700 3.004980
H 19.508300 10.675800 3.897030
H 19.526600 10.671400 3.878610
H 19.200000 11.163700 3.080380
H 19.854900 10.173600 4.681340
H 19.559100 11.097900 5.041790
H 19.816600 10.187900 4.713690
H 19.524600 11.121200 5.053430
H 17.351400 10.142000 9.554940
H 17.584300 10.984100 8.999580
H 17.627700 11.015800 9.030970
H 17.396300 10.167900 9.578040
H 22.040200 11.352200 9.461570
H 21.610800 9.578150 11.455500
H 21.580400 9.609360 11.398400
H 21.598700 10.886600 10.228600
H 20.955200 10.402600 11.170700
H 20.734200 11.232700 10.593000
H 21.744200 11.191900 9.913420
H 20.767500 11.215600 10.675900
H 20.989000 10.378200 11.242900
H 22.021800 10.074900 10.631300
H 21.735900 10.448000 10.581600
H 18.421700 12.822500 2.261070
H 18.456600 12.811300 2.224450
H 18.583400 12.139500 1.447070
H 18.541600 12.165000 1.470430
H 18.870000 11.667100 2.273160
H 18.891700 11.651600 2.263720
H 18.509900 13.037000 3.270030
H 18.529000 13.041700 3.231170
H 18.781200 12.768900 4.197500
H 18.782500 12.751100 4.226980
H 19.172800 11.614800 3.972430
H 18.854100 12.103200 3.172960
H 18.864500 12.102700 3.155780
H 19.182400 11.605300 3.975680
H 19.145600 12.065900 4.864490
H 19.166500 12.041300 4.875490
H 17.327400 11.812100 8.441380
H 17.285000 11.777200 8.405340
H 21.639500 12.155200 9.140760
H 21.617100 12.163900 9.058880
H 20.976400 11.877400 9.820020
H 21.005600 11.866000 9.906490
H 18.082300 27.743600 0.755062
H 18.396300 26.921600 1.372410
H 18.375300 26.921100 1.311290
H 18.110100 27.753100 0.826014
H 19.859800 27.396300 2.066480
H 19.072300 26.449100 1.998150
H 19.049100 26.466000 1.952130
H 19.904200 27.361800 2.102060
H 19.123800 27.591500 1.520470
H 19.085900 27.606700 1.469180
H 19.923100 26.500200 2.505880
H 19.957100 26.462200 2.535580
H 20.763300 27.014700 2.824150
H 20.813500 26.957400 2.840680
H 21.412200 27.802000 2.831700
H 19.022600 28.502800 1.029780
H 19.071000 28.491100 1.086960
H 19.796500 28.292300 1.627070
H 19.851400 28.261400 1.668540
H 20.578900 28.931300 1.816600
H 20.507200 28.978000 1.784970
H 19.798500 29.161000 1.235020
H 19.733200 29.188400 1.187670
H 20.570500 28.081900 2.224370
H 20.631800 28.031700 2.250120
H 21.306400 29.601200 1.964670
H 21.510800 28.841000 2.499090
H 21.592600 28.769700 2.511060
H 19.669900 30.084500 0.748272
H 19.745600 30.060600 0.801501
H 20.544000 30.118700 1.302020
H 20.630400 30.073700 1.338920
H 21.217800 29.663600 1.942860
H 21.344400 27.871500 2.821660
H 17.351300 29.784900 29.586000
H 17.379700 29.815400 28.551500
H 18.248700 28.713200 32.991200
H 18.290600 28.720800 33.064100
H 18.889200 29.565400 33.055100
H 18.829800 29.570000 32.988700
H 22.474000 3.077690 27.574400
H 22.443800 3.050650 27.534900
H 23.354800 11.457400 8.385150
H 22.491100 11.261700 9.252120
H 23.976600 10.657400 8.597750
H 23.971300 10.678400 8.557790
H 22.904700 11.006100 9.097200
H 23.229700 10.587600 9.259040
H 23.327800 10.194400 9.499880
H 24.192400 9.848270 9.135510
H 24.198100 9.819970 9.164730
H 23.346200 11.471600 8.330130
H 22.466200 9.029910 11.256800
H 23.950100 9.203590 9.908500
H 23.960000 9.169520 9.934180
H 23.309500 8.917130 10.669600
H 23.326100 8.880340 10.699900
H 22.442100 9.065650 11.215000
H 22.886400 9.728820 10.266900
H 22.482800 10.517800 9.920340
H 23.221400 9.843650 9.927260
H 22.474500 9.773850 10.588500
H 22.463300 10.540500 9.864260
H 27.098900 8.363070 16.932200
H 25.273800 8.546500 17.729200
H 26.004100 9.172510 18.002800
H 24.837400 9.181570 18.420600
H 26.916600 9.080790 17.604200
H 27.646900 9.706790 17.877800
H 26.101600 8.246910 17.184400
H 25.821800 9.890230 18.674800
H 26.734400 9.798510 18.276300
H 27.464600 10.424500 18.549800
H 24.909200 9.981940 19.073300
H 25.470100 10.733200 19.512500
H 26.369800 11.234000 19.620400
H 26.552100 10.516200 18.948400
H 27.367100 11.350100 19.368200
H 23.264300 15.165200 5.704950
H 23.198900 16.822100 4.586700
H 22.974800 15.944200 5.087690
H 23.933400 16.128500 5.304650
H 24.384400 16.938100 4.928920
H 25.850700 16.497000 5.738580
H 25.399700 15.687400 6.114320
H 24.892000 16.312800 5.521620
H 24.441000 15.503200 5.897350
H 26.809300 16.681300 5.955550
H 23.990000 14.693600 6.273090
H 25.907300 15.062100 6.707020
H 24.957400 14.655900 6.639870
H 26.585100 15.803400 6.456540
H 22.484500 12.015400 8.513550
H 22.499400 12.005600 8.583910
H 23.876800 17.563400 4.336220
H 24.826700 17.969600 4.403360
H 25.343100 17.122300 5.145880
H 25.794100 17.931900 4.770150
H 26.519800 17.460300 5.338290
H 28.559500 9.615070 17.479300
H 27.998600 8.863850 17.040100
H 28.631400 10.415400 18.132000
H 28.194900 11.050500 18.823400
H 32.709000 13.523300 6.011380
H 32.807200 14.370100 6.910900
H 32.792800 15.094200 7.600510
H 32.065600 14.300400 6.243600
H 31.819700 15.114900 6.833430
H 32.037000 15.748500 7.622820
H 32.659400 16.031500 8.400250
H 7.744570 25.202000 27.736400
H 7.338990 26.154200 27.760200
H 8.985650 24.163700 28.911800
H 8.347290 24.473400 28.157900
H 8.112440 25.619300 28.567400
H 8.480310 26.036600 29.398400
H 8.732980 25.100100 29.155100
H 7.472020 27.717500 29.000600
H 7.239230 27.075000 28.222900
H 7.859770 26.555800 28.810700
H 8.227640 26.973100 29.641600
H 9.100850 25.517500 29.986100
H 9.621630 25.919000 31.036500
H 9.488610 24.355800 29.796100
H 9.721390 24.998300 30.573800
H 8.848180 26.453900 30.229400
H 9.216060 26.871200 31.060300
H 8.613340 27.599800 30.638800
H 7.974970 27.909600 29.884900
H 1.381800 19.607300 2.470000
H 1.377650 19.652500 2.522660
H 1.395210 19.684400 2.472960
H 0.849982 20.036700 3.503760
H 0.842796 20.070100 3.513150
H 1.833090 19.980100 3.392740
H 1.828320 19.999700 3.358840
H 1.831280 19.925300 3.346710
H 0.817066 20.264200 4.043050
H 1.733290 20.352800 4.327410
H 1.754880 20.303100 4.307590
H 1.762870 20.358600 4.353810
H 1.135580 20.649000 5.119140
H 1.173080 20.639300 5.095160
H 1.185790 20.686400 5.148340
H 31.115400 19.653200 2.316250
H 31.123000 19.656900 2.226470
H 31.137600 19.631900 2.215770
H 33.077300 19.463400 1.976700
H 33.085600 19.434100 1.912370
H 32.077900 19.472000 1.813010
H 32.044700 19.463700 1.901150
H 32.054300 19.452300 1.823230
H 33.108700 19.491200 1.907150
H 30.539900 19.928100 3.007510
H 30.541200 19.993100 3.014050
H 30.538300 19.981100 3.110780
H 30.444900 20.281100 3.976080
H 30.468100 20.359500 4.071840
H 30.464800 20.370900 3.974930
H 31.430400 20.210800 3.821770
H 31.446100 20.259500 3.817870
H 31.775200 19.902500 2.943650
H 31.776800 19.886200 2.941610
H 32.237300 19.816800 2.816720
H 32.762300 19.815800 2.787300
H 32.756500 19.791100 2.786590
H 31.484100 20.075400 3.421540
H 32.427400 20.148100 3.660820
H 32.429900 20.169800 3.732290
H 32.416000 20.140400 3.667460
H 31.676800 20.428500 4.337110
H 33.183100 19.911100 3.127480
H 30.878000 20.596500 4.861950
H 32.098300 20.505100 4.535040
H 32.622600 20.522900 4.647860
H 32.069600 20.465000 4.547610
H 33.079600 20.393700 4.377990
H 33.055100 20.394700 4.393300
H 30.923600 20.687200 4.941920
H 30.914300 20.688900 4.851640
H 31.723200 20.789600 5.427770
H 32.800400 20.843900 5.498410
H 32.815200 20.875900 5.563440
H 32.754000 20.808800 5.521900
H 31.782600 20.876200 5.487890
H 31.769200 20.862100 5.409270
H 6.824120 10.773100 17.910800
H 6.831940 10.824600 17.895900
H 6.428780 11.084200 17.005900
H 7.388210 10.967300 18.756900
H 7.407720 11.000500 18.738100
H 6.429610 11.152900 17.000200
H 6.308530 11.897500 16.291200
H 6.990190 12.782600 16.827600
H 6.308130 11.817200 16.284800
H 6.494510 12.775600 15.940600
H 6.501140 12.858800 15.958700
H 6.974220 12.717200 16.816100
H 6.955830 13.779300 16.091900
H 6.937960 13.702700 16.065600
H 7.550780 14.412300 16.655000
H 7.519670 14.350100 16.626300
H 7.479250 12.706400 17.696600
H 7.453940 12.658700 17.691600
H 7.421080 11.813000 18.224200
H 7.443490 11.853500 18.217300
H 6.954430 11.929700 17.348400
H 6.941360 11.871400 17.348700
H 7.933660 12.600200 18.567100
H 7.968310 12.630200 18.565500
H 7.515020 13.559400 17.175800
H 7.486810 13.504400 17.158900
H 7.966520 13.445900 18.034400
H 8.004070 13.483200 18.044700
H 8.479110 14.233100 18.377200
H 8.528890 14.260000 18.392900
H 8.126560 14.588300 17.497300
H 8.083770 14.544200 17.472400
H 8.002670 11.633500 19.301200
H 7.969920 11.614600 19.317500
H 8.413380 12.541700 19.442500
H 8.457360 12.554000 19.434400
H 8.649970 13.515400 19.101900
H 8.599750 13.500200 19.098400
H 12.285200 9.634210 16.580800
H 12.169800 10.526500 16.068600
H 12.203200 11.561100 16.051300
H 12.464000 11.309400 16.983300
H 12.518300 9.123320 17.450500
H 12.806800 9.130710 18.444800
H 12.765800 10.094200 18.180000
H 12.505000 10.345900 17.248000
H 12.724800 11.057600 17.915200
H 13.073300 9.654410 19.297200
H 12.985600 10.805900 18.847200
H 13.246400 10.554100 19.779200
H 12.376300 12.460800 16.533300
H 12.683800 12.021100 17.650500
H 12.642800 12.984500 17.385700
H 12.931200 12.991900 18.380000
H 12.944600 11.769300 18.582500
H 13.164400 12.481000 19.249700
H 13.279700 11.588700 19.761900
H 1.044370 18.256000 23.921300
H 1.060910 18.317700 23.934400
H 1.384430 19.094500 24.537500
H 1.365530 19.043700 24.511400
H 1.244890 19.711000 25.357400
H 1.223550 19.673900 25.320400
H 16.580300 15.254800 25.494800
H 16.424200 16.185300 25.826400
H 15.744000 15.186400 26.101200
H 14.679100 16.480400 27.193000
H 15.048100 15.635000 26.722800
H 15.658100 16.375400 26.440300
H 16.878200 17.856100 25.875400
H 14.735900 17.495900 27.385800
H 16.268100 17.115700 26.157900
H 15.203300 18.409600 27.249700
H 16.112100 18.046200 26.489400
H 15.502000 17.305800 26.771900
H 16.792300 19.045000 26.214600
H 15.956000 18.976600 26.820900
H 17.800300 16.735500 24.929900
H 17.333000 15.821800 25.066100
H 17.034200 16.925600 25.543900
H 17.857100 17.751100 25.122800
H 17.488200 18.596400 25.593000
H 18.090500 18.062200 29.573000
H 18.080200 18.004800 29.556800
H 19.033500 17.648400 29.467000
H 19.026400 17.599800 29.444900
H 17.396700 18.545300 30.115700
H 17.405000 18.599600 30.132500
H 18.228500 18.527900 30.670500
H 18.228300 18.561700 30.698900
H 19.042600 18.086100 30.366100
H 19.043400 18.055100 30.335000
H 19.981700 17.438800 29.810000
H 19.981400 17.469200 29.842700
H 19.865900 18.048100 30.932400
H 19.875200 18.037700 30.889800
H 19.051600 18.523700 31.265200
H 19.060400 18.510500 31.225200
H 20.680200 17.572500 30.599600
H 20.690100 17.565000 30.554300
H 17.158900 19.076500 30.972000
H 17.160700 19.116700 30.995500
H 19.892300 18.493100 31.779900
H 19.874900 18.485800 31.831500
H 20.942500 17.930700 31.534800
H 20.961900 17.944500 31.478400
H 20.698200 18.447800 32.397800
H 20.724100 18.475700 32.334600
H 18.245500 18.983300 31.560600
H 18.237300 18.999300 31.598000
H 17.430700 19.456100 31.896000
H 17.423000 19.474900 31.930800
H 18.121800 19.578300 32.687600
H 18.139100 19.582300 32.640300
H 19.077400 18.965900 32.115300
H 19.094400 19.421300 33.005500
H 19.060600 18.961400 32.164300
H 19.069700 19.399000 33.063400
H 20.012700 18.985200 32.957300
H 20.040600 19.016300 32.893600
H 26.610500 20.073100 25.985700
H 25.557500 21.771800 25.911800
H 25.921300 20.813700 25.765800
H 27.440500 19.748700 26.512600
H 26.873100 20.849500 26.558600
H 27.135800 21.625900 27.131500
H 27.398400 22.402300 27.704400
H 26.346600 21.698900 26.521700
H 27.662300 20.776600 27.168400
H 25.616500 22.690900 26.384700
H 26.609200 22.475300 27.094600
H 26.082700 23.324600 27.057700
H 26.831000 23.503200 27.750500
H 27.661000 23.178700 28.277400
H 31.191500 16.990100 24.519300
H 31.176300 16.934400 24.525000
H 32.904800 17.522000 23.708200
H 32.919700 17.588600 23.709900
H 32.016600 17.038200 23.929100
H 32.031000 17.102700 23.924000
H 30.626300 17.281000 25.336500
H 30.609300 17.238300 25.336100
H 31.420600 17.888500 25.341700
H 31.331500 18.162300 25.736700
H 31.686000 17.695300 24.926600
H 32.123000 17.799400 24.635500
H 32.550300 17.989000 24.518200
H 32.195700 18.456100 25.328300
H 32.214900 18.496000 25.346900
H 32.917300 18.406900 24.640700
H 33.060000 18.749900 24.919800
H 33.009300 19.103500 25.352200
H 32.705400 19.217000 25.729900
H 30.467300 17.868500 26.145100
H 30.486800 17.897500 26.156400
H 30.788400 18.656200 26.735200
H 30.810300 18.674300 26.759500
H 31.512600 18.585200 26.053200
H 28.188800 19.927200 27.205400
H 31.510200 19.403400 26.984000
H 31.486700 19.390300 26.948300
H 33.238400 20.001900 26.174600
H 33.215100 19.977900 26.131500
H 32.398900 19.889300 26.769900
H 32.374900 19.874000 26.727400
H 32.306900 19.192700 26.058400
H 31.841200 18.923200 26.138300
H 27.924900 21.553000 27.741400
H 28.655000 20.560900 27.878300
H 28.714100 21.480000 28.351200
H 28.350300 22.438200 28.497300
H 5.844950 21.998500 12.093800
H 5.860520 21.985300 12.087900
H 5.912440 22.990600 9.641130
H 5.433800 23.655900 9.079750
H 5.389310 23.626800 9.074010
H 5.807110 22.526100 10.973000
H 4.814250 23.257600 10.953700
H 5.624910 22.806000 10.581000
H 5.688430 23.004600 10.103000
H 4.830310 23.288600 10.950800
H 4.895440 23.610500 9.983760
H 4.928410 23.643400 9.983210
H 5.165780 22.686500 11.723400
H 5.167500 22.662800 11.723800
H 11.451800 20.181600 5.561270
H 11.442600 20.223400 5.576760
H 10.828200 19.181700 5.847670
H 10.490500 19.995900 5.357710
H 10.483900 20.031500 5.366810
H 10.835200 19.140100 5.827410
H 10.661100 20.951300 4.997100
H 11.291300 21.784200 4.841320
H 11.301100 21.750200 4.842200
H 10.653400 20.984000 4.998450
H 7.703640 22.046100 8.692670
H 7.089770 22.205400 9.472360
H 7.731100 22.045100 8.722030
H 8.056880 21.451200 9.462830
H 8.066580 21.443000 9.494550
H 6.448440 22.365800 10.222700
H 6.148040 22.169900 11.148100
H 7.246230 21.902800 9.835540
H 6.435570 22.354400 10.208200
H 7.463080 21.075700 11.365600
H 7.208460 21.727000 10.342400
H 7.481830 21.082100 11.342500
H 6.567130 21.887400 11.092800
H 6.958700 21.718300 10.775400
H 7.975700 21.098400 10.432700
H 7.968480 21.088200 10.462200
H 6.707620 21.406700 11.948300
H 6.685820 21.408900 11.962800
H 6.723100 22.539000 9.268420
H 6.329760 22.844200 9.352620
H 7.051940 22.733100 8.351610
H 7.010620 22.723600 8.328600
H 6.211070 23.322700 8.482550
H 6.163510 23.302200 8.468180
H 11.997600 19.538900 6.049460
H 12.007900 19.490300 6.022580
H 12.401300 20.415200 5.786720
H 12.413100 20.367400 5.764820
H 13.374400 20.553100 5.968380
H 13.360000 20.607100 5.996680
H 13.223600 22.121600 5.249310
H 11.857100 21.058800 5.303510
H 11.846300 21.099700 5.314020
H 12.818400 21.244500 5.507070
H 12.805000 21.291600 5.523970
H 12.226600 22.217600 4.937500
H 12.239000 22.178500 4.934520
H 13.208700 22.168000 5.261230
H 13.974500 21.648800 5.725760
H 13.991100 21.594600 5.702240
H 12.576100 18.612900 6.635940
H 12.587200 18.556200 6.595130
H 11.594000 18.662500 6.312210
H 11.602600 18.613100 6.280330
H 12.969200 19.676000 6.226130
H 12.956300 19.730800 6.259420
H 14.165200 19.783500 6.532540
H 14.149200 19.846500 6.574990
H 13.511400 19.046300 6.732120
H 13.525200 18.984600 6.687440
H 14.318700 20.799000 6.206630
H 14.335700 20.738800 6.171930
H 16.850200 24.540300 8.019820
H 16.841900 26.025700 9.359050
H 16.826300 25.978200 9.326440
H 16.815500 24.458900 8.025850
H 16.737700 25.446700 8.507120
H 16.710100 25.377600 8.491200
H 17.941400 22.280500 9.435570
H 17.957900 22.326700 9.388590
H 18.248100 22.402000 10.416900
H 18.250800 22.423000 10.376900
H 17.149200 23.549100 8.027740
H 17.526400 22.670700 8.571090
H 17.554700 22.738900 8.528740
H 17.752100 23.275500 9.628280
H 17.531800 23.430400 9.221380
H 17.114300 23.468100 8.055090
H 17.347800 23.886700 8.947850
H 17.176400 24.324500 8.948760
H 17.142000 24.835500 9.187540
H 17.181700 25.084200 9.599050
H 18.364300 23.002500 11.252100
H 18.355000 23.002000 11.228800
H 17.892600 23.296000 10.144300
H 17.950600 23.613100 10.548400
H 17.898000 24.055700 10.794600
H 17.537200 24.190100 9.871670
H 17.546300 24.224300 9.867970
H 17.538000 25.709800 11.207200
H 17.547900 25.709400 11.172300
H 17.744900 24.561900 10.788100
H 17.340600 25.173100 10.107700
H 17.542600 24.949800 10.522000
H 17.134800 26.121900 10.347300
H 17.133000 26.099700 10.307800
H 18.258800 23.921300 11.717500
H 18.242500 23.908400 11.716100
H 17.960000 24.912100 11.688200
H 17.943400 24.899600 11.708200
H 14.821500 25.218600 15.024400
H 15.011800 26.061000 14.453600
H 15.136900 27.086200 14.382300
H 14.453200 24.875400 16.960100
H 14.617000 24.784600 15.941900
H 14.692800 25.763800 16.129900
H 14.890200 26.402000 15.385800
H 14.966000 27.381300 15.573800
H 14.768600 26.743000 16.317900
H 14.844400 27.722300 16.506000
H 14.373800 25.466600 17.806200
H 14.571200 26.104800 17.062100
H 14.525400 27.425100 18.182300
H 14.400300 26.399900 18.253600
H 14.647000 27.084100 17.250100
H 15.163400 28.019500 14.829700
H 14.920200 28.701500 16.694000
H 15.084100 28.610700 15.675800
H 14.715700 28.267500 17.611500
H 21.119400 1.456530 1.167620
H 21.126200 1.488740 1.228870
H 21.133700 1.314580 2.193020
H 21.128800 1.386480 2.259090
H 21.146300 2.373090 2.096880
H 21.158300 2.306520 2.068680
H 21.177000 3.687190 1.023000
H 21.163900 3.359690 1.934680
H 21.182800 3.298470 1.944340
H 21.148800 2.726010 1.161230
H 21.152500 2.695240 1.147340
H 21.166400 3.712620 0.999025
H 21.207400 4.290410 1.820000
H 21.181400 4.346300 1.772480
H 21.231900 5.282350 1.695660
H 21.199000 5.332910 1.610280
H 21.204500 4.892720 0.736885
H 21.161200 1.704210 3.151800
H 21.140700 1.812940 3.202380
H 21.194500 2.521030 3.787030
H 21.213200 3.901690 2.741340
H 21.178900 3.993380 2.708130
H 21.224600 3.546150 3.928520
H 21.178300 3.683890 3.908190
H 21.161300 3.006770 2.870340
H 21.188700 2.909750 2.865690
H 21.158800 2.653850 3.805990
H 21.246200 5.140400 2.721060
H 21.201500 5.230650 2.640490
H 21.193900 4.627070 3.481590
H 21.243600 4.504910 3.538350
H 18.675300 1.761830 7.577870
H 19.167200 0.880339 7.348010
H 19.608600 1.213350 8.181250
H 20.050000 1.546350 9.014490
H 19.300800 2.065970 8.603580
H 19.742200 2.398970 9.436820
H 20.799100 1.026740 9.425400
H 18.551700 2.585580 8.192670
H 18.829600 3.130870 9.027680
H 20.491400 1.879360 9.847730
H 21.424600 1.330880 10.451100
H 20.932700 2.212370 10.681000
H 19.434500 3.251590 9.859150
H 20.204300 2.915400 10.464300
H 21.133800 2.092320 32.946500
H 21.122100 2.092020 32.909000
H 21.149400 3.035500 32.519800
H 21.141000 3.050780 32.518800
H 21.168900 4.065540 32.622000
H 21.171200 4.075910 32.660300
H 21.187000 4.906450 33.225700
H 19.895600 32.736000 7.564680
H 20.357700 33.252400 8.592160
H 20.665400 32.399800 8.169830
H 21.270300 32.520500 9.001300
H 21.548200 33.065800 9.836310
