9000
Atoms. Timestep: 0
O 1.450500 1.344060 1.372600
O 2.402540 1.192050 1.278920
O 3.108380 1.827940 1.619940
O 5.088000 2.108820 30.826100
O 5.935520 1.660430 30.668000
O 2.988950 1.861550 33.222200
O 3.701920 2.116020 32.710000
O 3.525490 2.484640 31.826100
O 5.634800 1.602260 31.560800
O 4.615270 2.146510 31.699800
O 4.319630 2.992320 31.943100
O 5.575920 29.760100 1.403010
O 6.047040 30.315600 2.000850
O 5.994680 33.012900 2.333940
O 5.137110 31.329100 2.844370
O 5.523500 30.411100 2.840940
O 4.458290 31.995700 2.538390
O 5.337450 32.400800 2.734340
O 6.497190 1.451400 2.051940
O 7.150240 1.373290 1.332300
O 6.206820 1.203840 2.879020
O 6.190670 1.746690 32.362300
O 6.922770 1.317900 32.970800
O 6.926680 2.241250 32.738800
O 6.569100 29.606900 1.346820
O 7.814460 29.134500 1.439130
O 6.959310 28.938900 1.838640
O 8.105160 29.981900 1.769870
O 8.070740 30.977100 1.752230
O 8.816680 31.437100 2.192330
N 0.741273 2.216940 0.901817
N 0.876371 6.012310 0.821143
N 4.359700 5.626470 4.235890
N 4.915570 4.940310 4.587060
N 4.786570 5.701530 5.156490
N 2.890700 5.679210 28.468500
N 4.168970 6.042890 30.000100
N 3.669640 4.648690 30.653000
N 3.547890 5.602290 30.548400
N 3.207560 5.032480 31.389500
N 5.120310 6.107100 29.999700
N 6.068050 5.471400 30.718200
N 1.086420 2.027780 32.572400
N 1.281740 1.682050 31.733000
N 3.239090 6.014830 31.625500
N 1.776190 7.947790 2.114090
N 1.060260 7.184640 0.840439
N 2.147100 7.432120 0.960741
N 1.755110 6.555870 0.954926
N 2.889250 7.261120 1.722550
N 2.632090 6.350770 1.501800
N 3.494880 6.586530 1.118700
N 4.108720 6.208520 1.720550
N 0.955689 8.094330 2.510420
N 1.562140 9.296480 2.160440
N 2.432890 9.109850 2.394220
N 2.077540 8.876070 1.464630
N 3.037930 8.857540 1.239320
N 2.719120 8.105660 2.119230
N 3.315350 7.990290 1.030190
N 1.096990 10.254800 1.615200
N 4.236630 6.244050 3.496650
N 3.931200 6.438610 2.598610
N 1.024120 10.319300 2.566900
N 4.320920 6.498470 4.798880
N 1.759740 8.585380 25.969400
N 0.868650 6.974260 27.494600
N 1.399450 7.689740 27.171700
N 3.903960 6.962360 27.583700
N 4.052730 7.622110 26.913000
N 1.671620 9.589670 26.667000
N 2.254560 8.818760 26.840400
N 1.100990 8.647770 26.696400
N 5.537180 8.390020 27.184500
N 4.669260 8.345430 26.782300
N 2.528390 6.360130 29.221100
N 2.050110 7.191500 28.032200
N 1.634780 6.566120 28.912300
N 2.269490 6.270650 28.089000
N 1.205050 6.303450 28.072400
N 2.829560 7.366390 28.489200
N 3.375550 7.630210 29.195200
N 3.345100 6.197120 27.879900
N 1.091600 8.017440 27.989400
N 2.124200 8.210640 28.243200
N 2.333720 8.195630 29.151800
N 1.590070 8.826120 28.694600
N 1.803040 9.527930 29.343300
N 3.121330 8.570580 29.440100
N 2.216270 10.492300 29.281900
N 1.779960 10.097000 28.588200
N 0.968012 10.367900 29.611900
N 3.212070 6.748880 29.774800
N 4.064560 7.121890 30.036200
N 3.413310 7.317140 30.734700
N 5.591490 6.885730 30.417100
N 6.077530 6.376570 31.056300
N 2.445460 9.063690 30.333600
N 1.206130 9.405120 31.436600
N 3.738350 8.140770 30.309000
N 2.684100 8.209250 30.633200
N 3.296340 8.710580 31.193800
N 4.167940 8.314250 31.409600
N 3.768770 9.285360 30.491600
N 5.456070 9.427330 30.952400
N 4.527840 8.652150 30.373700
N 4.569500 9.281860 31.323100
N 1.820050 10.866600 30.064200
N 1.226430 10.668100 30.776200
N 1.980450 10.215400 31.419500
N 1.687910 11.533000 31.411300
N 2.737700 11.005100 29.884900
N 2.983670 9.799510 30.653100
N 1.477830 6.554270 31.488300
N 1.268400 6.388590 32.609500
N 0.837751 6.953990 32.004200
N 2.369430 6.324100 31.722900
N 2.857620 7.759850 32.828500
N 2.360750 9.367870 31.571200
N 1.672110 9.679840 32.238500
N 2.078780 8.262910 33.078700
N 4.417450 8.901680 32.196600
N 2.518050 11.390800 31.804000
N 0.774141 11.528600 31.484300
N 2.427920 10.546800 32.898100
N 3.410720 11.081100 31.848800
N 2.754740 10.254800 31.952800
N 3.463700 10.970900 32.827100
N 2.723640 11.456900 32.837700
N 2.426960 12.885400 29.423900
N 2.089750 11.866300 29.571000
N 3.021360 12.112500 29.381700
N 2.116670 14.649600 29.200600
N 2.627210 13.822600 29.201100
N 1.355900 11.768600 30.150800
N 6.908480 5.031270 30.442600
N 7.564450 8.982180 30.716700
N 6.261910 9.343630 31.517200
N 7.635230 8.265500 31.488600
N 7.214470 9.236880 31.595100
N 27.737900 2.653140 1.417550
N 25.913800 3.761000 27.699100
N 26.023200 4.726790 27.527700
N 26.871200 4.533000 26.868300
N 26.417800 5.394070 26.932500
N 27.750500 4.628860 27.276800
N 26.770000 2.366650 28.511000
N 26.640200 0.828406 28.967400
N 26.791100 2.283320 29.555600
N 26.632100 3.188640 28.981300
N 26.745700 4.095750 28.867900
N 26.584500 3.130130 27.959400
N 27.742800 3.890220 29.228900
N 27.111700 4.904890 29.153700
N 27.385200 1.927010 30.294700
N 27.474500 1.472630 31.304800
N 27.765100 0.917133 30.529600
N 27.359100 2.973470 29.868100
N 27.053800 4.024340 29.882800
N 26.389700 4.742880 29.773100
N 27.802500 2.589490 33.005600
N 27.831000 7.669530 31.838800
N 27.719000 32.298600 27.578100
N 27.377500 31.275300 28.903400
N 26.320700 32.611300 28.538600
N 26.722100 31.753200 28.337000
N 28.314300 1.946030 2.141720
N 28.794100 1.088890 2.298380
N 27.972300 1.417530 1.379350
N 28.447900 2.087590 0.914700
N 31.051800 1.302150 1.736470
N 31.303100 2.181870 1.408040
N 30.274400 0.958823 1.324500
N 29.162400 2.894640 1.654230
N 28.827200 4.057080 1.827930
N 29.640600 3.475600 2.237060
N 28.323400 3.105000 2.018110
N 30.108900 2.685860 1.888420
N 29.965500 2.969090 0.992184
N 32.345300 3.098150 1.278460
N 31.826800 2.854420 2.047850
N 32.286700 3.717440 2.209210
N 28.757900 5.182850 1.314770
N 28.158600 4.657240 1.795630
N 29.285500 5.047250 2.108190
N 29.908100 5.277150 1.416960
N 30.298900 5.578530 2.372690
N 31.202800 5.386160 2.235000
N 31.211300 5.934590 1.465200
N 30.055000 3.979930 3.521610
N 30.725200 3.432070 3.920160
N 31.697800 3.475590 2.898520
N 29.883800 4.924680 3.342780
N 30.344400 4.649860 2.585670
N 30.744200 2.449520 4.466570
N 31.420800 2.138860 5.727140
N 31.639400 2.139880 4.794920
N 30.546100 3.171180 5.030310
N 31.293900 3.912160 4.591060
N 30.879100 3.954130 5.497060
N 28.445700 3.332290 25.830800
N 28.799800 1.135930 27.589900
N 30.130400 2.092570 26.225400
N 30.476600 1.234020 26.586400
N 31.179600 1.599040 27.323200
N 30.409600 2.216150 27.101200
N 28.243400 3.021910 27.836800
N 29.107300 2.581590 27.476800
N 28.064800 2.682640 26.411500
N 28.561100 3.541600 26.736400
N 31.091200 2.940300 27.547700
N 30.526900 3.681240 27.769000
N 29.125500 5.555340 27.757600
N 28.642400 4.365150 27.683000
N 28.981800 4.382240 26.824000
N 30.503700 5.139580 27.437600
N 28.642400 2.528740 28.509900
N 27.948300 2.121740 29.469900
N 29.076600 1.736770 28.249000
N 30.639100 2.025240 28.079500
N 31.629300 2.046220 28.060600
N 29.471600 3.055330 29.090300
N 28.411900 3.644270 28.530200
N 29.516500 3.767930 28.501500
N 30.450900 3.143030 29.333200
N 30.479000 3.972330 28.699400
N 29.795400 2.935840 28.076600
N 31.284900 4.008500 29.429000
N 31.028800 2.832080 28.487500
N 31.478000 4.046230 28.497600
N 28.828300 4.963270 28.493900
N 29.772700 5.088210 28.803500
N 30.757000 5.032450 29.141200
N 30.972200 5.015460 28.237800
N 30.185400 5.605940 29.619400
N 29.814300 4.639410 27.906700
N 28.325400 1.358470 29.838400
N 30.455600 2.432140 30.261800
N 29.892600 1.683020 30.106500
N 30.376300 2.249860 31.408700
N 30.468700 1.514520 30.851300
N 31.221100 2.874350 29.900400
N 30.865100 3.828230 30.252500
N 30.797300 3.137490 30.880500
N 31.227400 4.487690 31.067500
N 30.095100 4.817450 30.120900
N 31.073700 4.833840 30.151200
N 32.850600 5.754090 30.698700
N 32.109600 5.211590 30.612500
N 32.734800 5.751240 29.707600
N 31.688500 5.925790 30.075000
N 28.300300 0.861698 31.555600
N 29.529400 2.161380 33.087600
N 28.929600 1.282570 32.125900
N 27.881700 1.470610 32.182500
N 29.285100 1.251150 33.230400
N 29.747200 1.217890 31.616600
N 29.971900 1.503150 32.521700
N 32.897500 1.746090 31.870700
N 31.729500 1.299630 32.287400
N 31.980100 1.712400 33.122800
N 32.864700 1.485590 32.770400
N 31.072500 4.141340 31.939500
N 30.572400 3.163720 31.771100
N 30.836300 3.427640 32.892800
N 31.363400 2.697490 33.185200
N 32.578000 2.649660 33.008100
N 30.481800 5.851410 31.979700
N 31.252900 5.317610 32.942000
N 31.178300 4.348150 32.923900
N 30.370800 5.614270 33.188600
N 31.904200 4.671280 31.993700
N 32.213100 5.280930 32.650400
N 32.930000 5.861160 32.615600
N 30.472000 6.436670 1.595270
N 30.136500 6.701900 0.791328
N 30.609900 7.423600 1.229080
N 31.556600 6.951670 1.407800
N 32.436500 6.923390 1.869710
N 32.677100 7.197280 0.860279
N 33.098700 7.615050 1.751210
N 31.027900 9.416390 0.930873
N 33.075000 9.513760 1.593420
N 30.409600 11.176900 1.250460
N 32.571600 11.331700 1.604020
N 31.967600 11.291900 0.795847
N 32.787800 10.862300 2.710860
N 32.228500 11.457400 3.269980
N 29.073600 11.390600 25.886100
N 29.727200 10.649300 26.041100
N 32.813200 7.819350 27.487700
N 32.712200 8.590050 26.887700
N 29.374400 10.939200 27.022500
N 28.498400 11.107500 27.350000
N 30.266200 10.744200 26.838800
N 32.339300 7.471640 29.581700
N 28.969600 9.975700 29.102100
N 29.266500 11.139400 28.595600
N 28.494600 10.689300 28.253200
N 29.797000 10.333100 28.801200
N 33.211200 11.038500 29.050500
N 28.312900 7.453530 31.076300
N 31.445100 6.853160 29.960000
N 30.927800 7.133340 30.656500
N 29.685400 6.554690 30.146900
N 30.193000 7.323460 29.913000
N 30.060500 6.915070 30.929300
N 32.482500 6.628170 29.980200
N 28.819600 8.433240 31.233200
N 30.483200 8.141090 30.688500
N 29.768900 8.149110 30.089900
N 30.431100 8.699190 31.443400
N 28.584200 10.138300 29.996400
N 29.554300 10.056700 30.258300
N 30.959600 10.146700 31.468800
N 29.892600 10.733400 30.899900
N 33.056300 10.192700 30.439100
N 28.763500 6.380430 31.957300
N 28.803700 7.370420 31.864800
N 29.641500 6.799660 31.933700
N 29.818800 7.586980 32.539800
N 30.200500 7.754130 31.718500
N 30.467800 6.661560 32.470900
N 30.902300 7.724800 32.347200
N 31.343600 6.722550 33.082700
N 32.433800 6.760620 32.529700
N 31.841000 7.505440 32.750900
N 28.314100 8.468200 32.051200
N 29.414700 8.275230 32.038000
N 30.407300 8.763450 32.366300
N 30.939500 9.494710 32.150300
N 30.517900 8.109190 33.126500
N 32.932000 9.262720 31.741800
N 31.713900 9.620390 32.847400
N 29.657200 10.938000 33.267900
N 29.777500 10.045200 32.989000
N 30.174100 10.570600 31.855200
N 30.719900 10.204400 32.956900
N 32.936900 10.209800 31.502000
N 32.489900 9.967600 32.315200
N 31.125400 11.777500 0.868215
N 32.534200 11.819800 2.424810
N 33.153300 11.913100 29.496400
N 30.923300 32.922700 1.048960
N 32.116800 32.152900 1.911470
N 32.045900 32.417900 0.973304
N 29.077500 32.825000 2.705280
N 30.745900 32.102500 3.051110
N 29.861100 32.218600 2.623320
N 31.515300 31.881100 2.638770
N 30.918200 33.011000 23.960400
N 30.148300 32.741300 25.312100
N 30.901700 33.258300 25.062600
N 31.543200 32.687700 24.666600
N 27.985400 33.210400 27.576700
N 30.415600 32.875700 26.224600
N 28.083800 31.745700 28.334600
N 29.306800 32.953900 32.854500
N 30.269900 33.078000 32.908200
N 32.050400 33.172500 32.943600
O 3.659730 3.996480 0.966804
O 3.219790 4.512270 1.699480
O 3.232260 5.503700 2.000090
O 3.210180 3.509710 3.553840
O 2.762440 4.137040 3.005250
O 2.397220 4.881520 2.537740
O 2.855030 5.657070 2.844110
O 3.612830 4.343710 3.907280
O 4.437210 4.732360 3.495420
O 1.619790 3.802390 30.823900
O 1.516390 0.923686 32.904600
O 2.060490 1.736040 32.692300
O 1.053320 3.067430 32.677100
O 2.126500 4.031740 31.659700
O 2.119150 2.575310 33.177000
O 1.870930 2.835710 32.237200
O 2.935960 4.513910 33.157600
O 2.564320 4.666830 32.241500
O 1.411640 32.871700 1.069270
O 32.638700 4.127270 1.298300
O 31.725800 3.978860 1.099410
O 33.214300 3.489070 30.686800
O 33.224500 4.445800 30.734800
O 32.976500 3.613680 33.153300
O 32.681800 4.158260 31.540500
O 31.984700 3.571920 32.820000
O 32.537800 3.307410 32.006300
O 32.871500 31.573300 1.601900
O 33.190300 32.233200 1.002140
O 32.759300 31.596000 2.568650
O 6.030490 5.362420 2.417160
O 6.131900 3.642610 3.113720
O 5.986660 6.477020 2.052820
O 5.489840 7.215070 1.521380
O 7.154700 6.135350 1.958180
O 6.798820 4.046020 3.626980
O 6.204670 6.092020 3.025720
O 7.350660 4.719990 3.990240
O 7.688320 5.621330 3.870920
O 6.433540 4.577860 2.816230
O 7.253220 6.920220 1.491570
O 6.303070 7.120570 1.025540
O 6.197610 7.468420 2.089140
O 9.736090 8.940890 1.895580
O 8.810630 9.117390 2.139960
O 6.248200 6.990810 3.061900
O 7.604070 7.904620 3.455520
O 6.792550 7.450130 3.644240
O 7.193230 6.314520 3.338600
O 7.193620 6.869060 2.573100
O 9.246420 7.563520 4.032520
O 9.726100 7.868150 3.289250
O 8.290640 7.442540 4.148900
O 7.693940 9.028380 3.291300
O 8.204040 9.647170 2.729780
O 9.749870 8.716480 2.786360
O 8.086920 8.587000 3.993250
O 9.163950 7.788200 5.515260
O 8.529300 8.049530 4.828730
O 7.064610 6.845460 33.086500
O 1.194590 2.703910 7.741640
O 1.289440 3.037710 8.635280
O 1.106360 27.928800 3.973210
O 0.895173 28.851000 4.101870
O 1.007990 29.398600 5.472640
O 1.064460 31.198500 4.717170
O 2.161490 30.392300 4.763730
O 1.847170 29.850100 5.517670
O 1.773370 31.006700 5.379350
O 0.987677 32.339200 6.313310
O 32.600200 1.570570 7.893670
O 32.342700 0.829880 7.264630
O 32.765300 2.535800 7.829720
O 33.182500 3.598240 8.236450
O 32.927900 27.502600 3.577470
O 30.978600 29.649200 4.087170
O 32.629300 28.718900 3.583080
O 32.654800 29.514100 4.077740
O 31.891100 30.365900 4.109970
O 31.761500 29.258300 4.446750
O 30.996900 30.476700 4.534020
O 32.639700 30.457100 6.045800
O 32.165700 29.729200 5.229260
O 32.661500 30.430400 4.717730
O 31.951800 29.797900 6.144150
O 32.802600 31.549400 5.128430
O 32.970500 32.485900 5.533210
O 33.092200 29.642300 6.282370
O 33.081700 32.468600 7.147270
O 32.136100 32.464700 7.351690
O 6.032550 2.591870 7.579280
O 5.123720 2.551840 7.809660
O 4.113980 6.129660 7.376770
O 5.241530 4.690450 7.097970
O 5.491720 5.142020 7.913480
O 4.974660 5.743320 7.382000
O 5.564610 1.712640 8.111180
O 5.107860 1.029340 8.567880
O 4.971260 7.253030 5.198310
O 5.867570 7.198210 5.574550
O 4.858020 6.941630 6.118310
O 3.975970 7.563600 7.642840
O 4.446500 7.040820 6.967110
O 4.432660 6.795480 7.990180
O 4.540110 32.083600 7.612780
O 4.830150 32.949000 7.846760
O 4.033740 29.653400 8.776760
O 3.207300 29.907100 8.464390
O 4.139570 30.900600 8.414060
O 4.670850 30.135100 8.273210
O 4.301530 31.837200 8.583530
O 6.569990 4.850540 5.356050
O 6.617670 5.820980 5.532570
O 6.297750 2.238950 6.697090
O 7.296680 4.197000 7.351170
O 6.762120 3.423480 7.546090
O 7.052460 2.635670 7.109450
O 6.151900 4.408150 7.420760
O 6.720670 4.271110 8.179160
O 6.628570 6.707210 5.213820
C 1.380290 1.976020 9.406790
C 0.741333 1.275260 9.333080
C 2.764630 2.085020 9.531770
C 3.274010 2.163400 8.736460
C 2.238760 2.927000 9.227650
C 3.411570 3.007100 9.225790
C 2.824480 3.107650 8.449100
C 5.669050 3.832080 9.742050
C 1.865180 4.818170 9.127220
C 2.713730 5.301110 9.299770
C 3.153590 4.827730 8.580160
C 3.405450 4.466100 9.412460
C 2.687540 1.888060 10.950000
C 3.559360 1.600460 11.117200
C 3.754150 0.802754 11.509700
C 1.739970 2.602340 10.002500
C 1.569020 3.195790 10.982300
C 2.413240 2.954250 11.420800
C 2.382770 4.062700 10.861700
C 3.451090 3.854100 10.095800
C 2.602940 3.282410 10.487300
C 5.150380 3.222210 11.201600
C 5.243990 3.180400 10.243700
C 1.953970 5.838690 9.851540
C 1.974120 5.033460 11.162100
C 1.530120 4.959630 10.002500
C 3.630770 4.431850 11.113600
C 2.607750 5.858380 10.506100
C 2.947950 5.186800 11.111300
C 3.492220 6.118910 9.858760
C 5.525170 4.809670 9.982700
C 5.760680 5.669270 10.771700
C 6.107790 4.411330 10.706500
C 2.128550 1.357000 12.711400
C 2.422380 1.172040 11.808100
C 3.830550 1.828580 12.358000
C 3.214470 1.112400 12.549800
C 2.978270 2.078790 11.876000
C 5.198280 1.645980 12.781900
C 4.613060 2.335210 12.924300
C 6.061510 2.080060 12.813900
C 1.769240 3.383010 12.073900
C 1.366730 4.270710 12.619600
C 0.931592 3.275690 11.716000
C 1.634160 4.200920 11.591000
C 0.829180 2.823710 12.627900
C 3.003840 3.838830 11.639300
C 4.078980 3.728470 11.755800
C 5.168770 3.092810 12.160600
C 4.574710 3.328650 12.863200
C 5.362200 3.874430 12.913700
C 5.575340 2.815450 13.202400
C 2.156780 6.050350 12.617500
C 1.195500 5.869070 12.567500
C 1.823240 4.935840 13.101400
C 3.912030 5.106350 12.931100
C 3.509690 4.570000 12.025100
C 3.233420 5.596750 12.294000
C 4.035890 5.715590 11.784700
C 4.557220 4.529170 11.610800
C 4.567650 4.536890 12.592900
C 5.392260 5.257890 12.875100
C 4.579200 5.791730 12.738100
C 6.143940 6.096400 11.646400
C 2.423070 1.652230 13.865700
C 4.155620 1.871930 13.633000
C 2.794060 1.106090 14.679600
C 3.731390 1.688520 14.841900
C 3.534310 1.137650 14.096700
C 2.543450 0.749016 13.594400
C 4.565150 2.402660 14.320700
C 1.018830 5.298960 13.498300
C 2.100120 5.327430 13.954100
C 1.641280 5.077890 14.890600
C 1.207330 4.406340 13.840200
C 1.794950 6.026420 14.544700
C 0.957219 4.384020 14.948700
C 3.818020 5.230860 13.961900
C 2.721940 5.878610 14.851400
C 4.840120 5.072020 13.667100
C 4.444200 5.505670 14.680400
C 5.313880 5.617930 14.331300
C 2.194410 1.180150 16.388200
C 1.450020 1.431300 15.893900
C 1.673520 1.996520 16.864800
C 0.787494 2.189940 16.401000
C 2.624310 2.381700 16.779300
C 4.437720 2.216470 15.252000
C 1.438820 3.734250 15.425100
C 1.545210 3.711970 16.488900
C 1.008440 3.069870 16.913600
C 0.736161 3.144390 15.925000
C 4.333810 3.806620 16.308600
C 4.865050 4.024070 15.495600
C 5.268980 3.573140 16.392500
C 1.792080 4.901970 16.612300
C 0.982860 5.530910 15.624300
C 2.514260 4.376840 16.868200
C 1.295730 4.535520 15.901800
C 1.162420 5.958030 16.790900
C 2.353470 6.018800 16.691200
C 3.963100 4.757550 16.461200
C 3.184300 5.883740 15.654300
C 5.172930 4.634600 16.451500
C 4.566170 5.129990 15.839200
C 5.651930 5.536990 16.447400
C 5.435250 5.625710 15.499700
C 5.571430 4.701440 15.547200
C 1.007410 1.339990 17.094700
C 2.393730 1.181520 17.481600
C 1.959910 2.181910 17.782600
C 4.106520 2.076050 18.218800
C 3.487860 2.515150 18.781500
C 3.190280 2.042990 17.526100
C 4.877660 1.638280 17.976600
C 5.405010 1.338020 18.744700
C 1.574540 2.558850 18.772000
C 1.190460 3.292530 17.908500
C 2.075030 2.959910 17.246200
C 1.852490 4.216380 17.506900
C 0.728644 2.534270 18.351600
C 0.959046 4.192220 17.000500
C 2.965320 3.530350 17.325800
C 2.815840 2.799950 17.919700
C 1.508510 5.137970 17.671300
C 0.807937 4.626020 18.042900
C 0.981317 5.475150 18.645300
C 2.869260 4.356400 17.844500
C 3.865970 5.543380 18.098600
C 3.246880 4.688030 18.694400
C 3.598140 5.191770 17.230500
C 4.865040 5.978080 18.383900
C 1.124210 1.802310 19.070700
C 5.944620 1.705000 19.469500
C 4.209800 4.007270 19.001300
C 3.843020 3.186590 19.361000
C 2.963910 3.943360 19.805800
C 1.501280 5.918710 19.319100
C 2.677390 4.971680 19.382700
C 4.220180 4.938530 18.860200
C 3.490470 4.705520 19.822200
C 3.764600 1.697740 21.949900
C 2.757900 1.262460 21.358800
C 3.581990 1.703910 21.047300
C 3.876860 1.982110 22.801900
C 4.682040 2.025100 23.407500
C 5.871510 1.960170 23.084900
C 5.372840 1.402720 23.935600
C 1.968580 2.361710 25.255200
C 1.083910 1.551860 24.738800
C 1.464620 1.137230 25.546500
C 1.978910 1.194660 24.318700
C 2.441970 1.230840 25.173700
C 1.127820 2.012790 25.644200
C 3.321340 1.539740 25.430300
C 4.146380 1.161380 25.059700
C 4.738860 0.752794 24.385300
C 1.753410 3.098940 25.909400
C 5.856400 2.890900 25.078600
C 1.683220 2.587830 26.673800
C 1.055530 2.956200 27.281100
C 1.514220 3.618420 26.774000
C 2.446150 3.248080 26.671000
C 2.070720 3.433270 27.549500
C 1.032890 3.910650 27.835200
C 1.552250 4.192810 28.602300
C 2.322810 4.236790 28.006300
C 4.915160 11.303900 1.542150
C 5.691880 11.339600 2.108130
C 2.504290 11.310600 4.071240
C 5.733180 10.972500 3.823460
C 5.108580 10.201400 4.271400
C 5.658050 11.442100 3.024950
C 2.476440 8.663650 5.230070
C 2.013120 9.259310 4.560090
C 2.242850 9.511550 5.597240
C 3.586900 9.200510 4.777740
C 5.111250 9.642410 5.056460
C 2.141800 10.184300 4.795920
C 2.945380 9.795140 4.425350
C 4.224830 9.901970 4.418570
C 5.562220 10.586900 5.355910
C 6.053200 11.397900 5.620400
C 4.581700 10.179100 5.636500
C 6.141290 10.515100 4.527950
C 5.121880 10.922600 6.141370
C 5.572830 10.188300 7.016980
C 5.716380 10.224000 7.944670
C 4.408650 10.391300 6.560030
C 1.844960 6.970830 9.261100
C 4.314570 7.232250 9.654380
C 5.228760 6.694190 9.038950
C 4.930400 7.552840 8.643940
C 1.792310 7.979240 8.718550
C 0.924752 7.990560 9.308070
C 1.882160 8.687680 9.391060
C 0.991844 9.023890 9.487800
C 2.707770 7.987130 8.940710
C 4.059090 9.569170 8.277570
C 3.621230 8.098110 9.338800
C 3.648950 9.171620 9.034430
C 5.690730 9.419650 8.486680
C 4.749300 9.283340 8.840710
C 5.324910 8.399380 8.601320
C 6.094040 9.298080 9.439320
C 4.615270 8.323800 9.369270
C 5.721060 8.169290 9.443560
C 4.089680 9.941290 9.352450
C 4.721170 11.472400 9.210110
C 5.521330 10.152300 9.594480
C 5.660480 11.175700 9.183750
C 4.605060 10.639900 9.674460
C 2.421350 6.897900 10.021400
C 1.917480 7.732010 9.852630
C 1.839050 7.456400 10.809500
C 3.529980 6.220750 11.218100
C 4.180290 6.239740 10.554700
C 3.480350 6.922850 10.361600
C 2.887080 7.734250 10.316400
C 5.993120 6.635930 10.846200
C 5.177310 6.897450 9.947940
C 0.894106 9.148750 10.464200
C 0.994882 8.097030 10.260900
C 1.617500 8.471780 10.932400
C 1.583470 9.616310 11.315400
C 2.252780 9.312970 10.676100
C 2.554000 8.107150 11.145800
C 3.077280 9.672350 10.154700
C 3.437820 9.620440 11.027400
C 2.702920 8.669760 10.110500
C 3.421150 8.683260 10.772900
C 4.227680 8.019840 10.212100
C 1.134950 11.233000 11.240700
C 0.931906 10.067800 10.567400
C 3.543430 10.828100 11.259900
C 2.929310 10.483000 10.623300
C 5.467900 10.953900 10.087900
C 5.638660 11.551300 10.852700
C 1.306390 7.038520 12.871000
C 2.623360 7.124630 13.205100
C 2.957150 6.503710 12.214700
C 1.830690 8.250910 11.811800
C 1.493300 7.993620 12.835600
C 4.320380 9.311640 12.624100
C 3.330010 9.049640 13.074300
C 2.902470 8.088660 13.200200
C 5.529040 8.029490 12.643600
C 4.902050 8.721920 12.204600
C 5.277640 9.659720 12.202500
C 5.263310 9.521020 13.158300
C 4.766000 8.327700 13.119300
C 2.125170 10.700800 12.560700
C 1.522580 10.375600 11.841300
C 2.841020 11.215700 13.286100
C 3.810320 11.166400 13.143600
C 5.962490 10.153100 12.694000
C 5.693130 11.039000 12.464800
C 0.801793 7.674490 13.463700
C 2.293880 7.648790 13.947200
C 2.543280 7.017530 14.774000
C 2.696080 6.539270 13.949900
C 1.359080 8.019030 14.160700
C 2.231140 8.766600 14.486800
C 2.271940 8.803720 13.561000
C 3.102650 9.599440 13.873200
C 2.700640 8.141500 15.083200
C 3.439120 8.474490 13.843400
C 4.388510 9.247230 13.537200
C 1.804280 10.814000 13.742700
C 2.604510 10.283300 13.526400
C 1.822620 7.786720 15.367900
C 2.163500 7.376620 16.126700
C 2.800950 6.715470 15.798100
C 2.757480 6.836960 16.900000
C 1.840070 6.672280 17.251900
C 0.900619 6.533520 17.503000
C 3.986220 6.533080 18.518000
C 3.344760 6.246720 17.337200
C 3.840050 7.063010 17.103700
C 4.626240 6.584280 17.656100
C 4.720900 7.322310 17.014400
C 2.456620 6.184440 19.325100
C 2.482460 7.077400 19.636500
C 3.149780 6.876550 18.865200
C 6.009160 8.533900 29.560800
C 5.463320 9.958560 29.233400
C 5.805640 11.003400 29.556000
C 5.596840 10.483000 28.426300
C 5.020160 10.953200 29.004900
C 5.853990 9.401530 29.879400
C 5.487920 10.402600 30.287100
C 2.429100 12.942200 2.045550
C 3.312400 12.741600 1.778860
C 5.624800 11.777800 1.027090
C 1.602290 13.270400 4.306980
C 2.669620 11.678600 3.217660
C 3.040010 12.270700 2.618770
C 3.030800 13.409800 2.613440
C 1.847740 12.485700 4.855280
C 2.729400 12.077800 4.644350
C 4.878270 12.099600 5.340380
C 5.410340 12.824800 5.012400
C 4.931420 13.229600 5.730240
C 1.581280 14.026400 4.841280
C 1.306830 14.153300 5.773410
C 3.852140 13.574900 4.700170
C 4.728480 13.732900 4.886630
C 3.233480 12.424900 7.336190
C 2.881640 12.464600 6.443630
C 3.686280 11.773600 6.654190
C 4.515530 11.893500 6.159860
C 3.690380 14.649800 7.592840
C 2.846050 14.915700 7.888510
C 2.041880 16.255500 6.559010
C 2.349150 15.429300 6.175950
C 2.307200 16.580900 7.394880
C 2.708070 12.413900 8.408230
C 3.122890 12.850600 9.176400
C 3.526810 11.954600 8.159560
C 3.772660 14.971200 8.471160
C 2.770440 13.604800 9.689570
C 3.475440 14.139700 8.943580
C 4.072960 13.488400 9.264120
C 2.151540 15.471200 8.097180
C 2.836080 16.128800 8.170960
C 3.199450 16.770800 8.979970
C 3.758820 16.212000 8.432380
C 3.365400 13.154600 10.268200
C 4.618110 13.012800 10.513700
C 5.324110 12.450700 10.912100
C 3.852450 14.005500 10.051300
C 2.064660 11.614400 12.869300
C 3.651380 12.093500 13.359400
C 2.698130 12.330400 13.272400
C 4.941520 12.753600 13.342600
C 5.638240 12.524900 12.646300
C 4.738830 11.806900 13.299700
C 6.010560 12.356900 11.775500
C 4.227300 13.188800 13.805700
C 2.941000 12.176100 14.198600
C 3.084450 12.301300 15.152700
C 3.924930 12.488500 14.658800
C 5.677920 11.806500 13.588500
C 4.507400 13.296800 14.690200
C 1.054040 18.422600 5.721640
C 2.480410 17.450000 7.011970
C 1.398670 18.521200 6.647710
C 2.165470 17.386200 7.934280
C 3.079680 17.170000 8.130250
C 4.801480 27.756700 20.999400
C 5.598910 26.882700 26.018000
C 5.643360 27.311200 26.864800
C 2.012090 32.660300 9.491240
C 2.010130 32.420900 8.608580
C 1.292260 33.174500 8.517230
C 2.494560 33.180600 10.163000
C 3.503070 32.483600 11.092300
C 2.620500 32.510800 10.803300
C 2.230940 32.962000 12.750800
C 2.241410 32.753600 11.759500
C 3.127040 32.812500 12.127500
C 2.244530 31.408300 14.143000
C 2.764920 30.640400 13.907800
C 1.318540 32.983500 15.170300
C 2.306050 32.405200 15.043000
C 2.046210 33.137300 14.449700
C 2.989180 32.499900 14.391000
C 3.054690 31.696900 13.844400
C 1.158810 32.845300 16.108100
C 1.806090 32.103800 15.957500
C 2.201300 32.750300 16.533400
C 2.156290 33.272900 15.590200
C 4.594760 29.596100 17.337700
C 1.220450 30.503300 17.899400
C 0.808810 31.389100 17.828400
C 3.718390 30.017700 17.225500
C 3.174000 30.156900 17.995500
C 3.279310 31.140700 18.076000
C 5.401250 31.152800 18.357900
C 4.894460 30.340000 18.186500
C 5.569150 29.804400 17.163200
C 5.222850 30.683500 17.371700
C 1.680690 33.146100 17.263400
C 3.029530 32.966900 17.597600
C 3.787640 33.158700 18.141900
C 4.705410 32.973600 18.068700
C 6.024370 29.181600 19.093600
C 3.290170 31.228800 19.021600
C 5.556440 30.456100 19.031400
C 3.313770 32.959800 19.255500
C 3.419320 32.612600 20.160800
C 3.713180 32.060000 19.345600
C 5.565720 28.219500 20.837700
C 5.494580 29.035500 21.411800
C 6.122230 29.362000 22.072100
C 6.112520 31.117800 21.395300
C 5.581720 30.139500 22.124000
C 2.982140 33.046500 20.888000
C 5.127340 30.635600 23.429400
C 5.696580 30.000600 23.071600
C 5.827070 32.446100 22.501300
C 4.808920 30.213000 24.251200
C 5.748370 30.235500 24.287700
C 5.566590 27.886900 26.091800
C 5.793150 28.495400 26.763000
C 6.120820 28.490900 27.999400
C 7.909190 4.077290 1.347230
C 8.669650 3.519670 1.447440
C 8.863870 3.750610 2.426210
C 9.452610 3.233620 1.869180
C 8.294060 4.526490 2.230000
C 9.100900 4.662460 1.746340
C 8.945840 5.274590 1.032450
C 9.456210 4.322510 5.807430
C 7.497220 5.342080 6.024010
C 9.589880 5.368600 4.899140
C 10.684400 5.984980 4.850980
C 10.349100 4.926980 5.242410
C 9.812910 5.160150 5.967790
C 8.679610 4.122930 6.348340
C 9.575770 3.630660 6.818550
C 9.671350 2.870190 7.371450
C 9.510330 4.042120 7.651140
C 7.691440 5.104680 6.928570
C 9.054060 4.928370 6.753800
C 8.345770 4.584260 7.304600
C 9.170770 4.896190 7.862960
C 9.547210 2.335300 8.120120
C 8.896690 1.645900 8.272180
C 8.350880 3.747220 9.281660
C 9.279420 3.480300 9.322690
C 11.269400 2.979790 8.974010
C 11.267400 4.004900 8.398830
C 8.833910 4.464790 8.874260
C 9.009480 5.299140 9.509790
C 8.375620 5.272800 8.160950
C 8.188710 5.580620 9.024430
C 9.748280 4.847350 8.830720
C 10.509900 4.555820 8.330990
C 9.993360 5.601830 9.756970
C 11.364500 2.368390 10.678400
C 10.922500 2.512470 9.860200
C 9.275160 4.121750 10.598500
C 9.789270 4.166890 9.813950
C 6.392200 5.184070 10.201000
C 6.749460 5.667530 11.050900
C 8.806790 6.056490 10.017100
C 9.481680 5.263810 10.536000
C 10.806600 5.590450 10.267600
C 10.171100 4.423240 10.903000
C 10.016800 5.673240 11.167800
C 6.177570 3.553520 13.158600
C 9.622930 4.355220 11.729600
C 10.059800 5.177260 12.038300
C 7.156420 2.788920 18.799100
C 6.620710 2.001150 18.858800
C 8.245570 1.559090 19.459700
C 9.075700 1.708920 19.899100
C 8.474070 2.482750 20.005900
C 8.088080 0.748345 19.886500
C 11.354100 1.520900 20.451400
C 7.998650 2.948480 19.218500
C 10.859400 1.017430 21.079700
C 6.289310 1.283120 23.729400
C 6.226400 1.236400 22.591900
C 6.147810 2.198920 24.430800
C 6.573610 1.521870 24.960000
C 7.243600 4.047350 25.351500
C 7.563630 3.517270 24.653200
C 6.309020 3.686040 25.420000
C 7.988670 3.265250 25.477200
C 8.853940 3.044080 25.838300
C 7.121950 2.507340 26.704700
C 7.945910 2.049330 26.813000
C 8.171050 1.535890 27.601400
C 8.337140 1.140420 26.743700
C 8.890030 2.470930 26.585500
C 9.230320 1.537250 27.376500
C 7.500790 2.860060 27.575400
C 6.684950 3.477250 27.174500
C 7.458200 4.014430 27.348500
C 8.437070 4.157830 27.265600
C 8.535490 2.666520 27.468800
C 9.057660 3.430560 27.346200
C 9.874310 2.618340 27.382400
C 10.693100 2.839720 27.759800
C 11.469300 5.780770 27.243400
C 10.751800 5.184120 27.229600
C 7.093660 2.103070 28.807400
C 8.193140 1.886480 28.508400
C 8.922660 1.286030 28.262300
C 10.010400 1.808190 27.915600
C 7.626760 2.871150 28.573400
C 10.227100 2.786430 28.624200
C 10.722500 3.552710 28.912600
C 10.081300 4.271250 29.209800
C 9.678840 4.974710 28.631800
C 9.340150 5.626490 29.270900
C 10.650400 5.291210 29.063800
C 10.804500 5.395460 28.121800
C 8.908750 4.310040 31.014500
C 9.492400 3.545740 31.047700
C 9.056060 5.160410 30.493800
C 9.939950 4.903630 30.098900
C 10.828800 4.570680 29.748100
C 11.553200 4.368370 30.642300
C 8.976650 4.309330 32.367300
C 9.317530 3.431430 32.000800
C 9.807920 4.210250 31.694600
C 8.406180 4.833190 32.972900
C 11.044900 6.629490 3.889170
C 10.207000 7.048590 3.864570