9000
Atoms. Timestep: 0
N 4.316890 2.004780 2.398300
N 4.639870 1.804910 1.509310
N 1.826200 4.179900 1.821780
N 4.429910 3.756680 2.481480
N 0.916141 5.379630 1.237210
N 2.460170 4.820980 2.173150
N 2.382830 5.503320 1.280100
N 1.839360 4.772690 1.009830
N 3.369790 4.393170 2.458490
N 3.454360 5.099700 1.062080
N 3.904990 4.510970 1.654120
N 4.019900 5.865470 0.763167
N 4.760410 6.073450 2.475110
N 4.781590 2.504630 3.038270
N 1.629820 3.290980 2.828650
N 2.229910 4.066020 2.830610
N 1.384810 3.773840 3.659360
N 2.708660 3.958770 3.654780
N 2.939360 3.376510 2.901020
N 3.703070 3.766590 3.215300
N 4.968270 3.512640 3.263950
N 5.714880 2.845170 2.997960
N 1.770950 5.136490 2.985560
N 1.278710 4.482590 2.546050
N 1.946220 4.594110 3.870800
N 1.009640 5.370230 3.536180
N 2.598820 5.776850 4.226040
N 4.417200 4.430080 3.138580
N 1.438940 3.959770 5.509350
N 1.417630 2.996870 5.524320
N 0.801289 3.495590 4.840770
N 1.021200 5.538140 4.456750
N 1.935490 5.209120 4.605660
N 1.384660 4.407210 4.624900
N 1.841250 6.068060 7.993280
N 3.670250 4.506450 10.497000
N 3.159600 5.382690 11.125900
N 2.929640 4.450270 11.084000
N 4.591690 4.806000 10.537900
N 5.967480 5.787830 10.389600
N 5.404790 5.086050 10.151500
N 5.968930 5.988620 11.591300
N 3.264820 5.554120 28.888200
N 1.070480 5.909050 30.908300
N 1.624090 5.911760 30.150100
N 2.902630 5.686000 29.784100
N 1.105590 4.987020 32.984200
N 2.802190 6.147250 33.205100
N 1.573870 6.952310 2.269160
N 1.654880 7.855340 1.490670
N 0.794283 7.657450 1.960460
N 0.808606 6.330800 1.837130
N 3.414700 6.238100 1.366040
N 3.925370 6.993770 2.297640
N 5.470940 7.735900 2.108650
N 5.359290 7.873600 1.076560
N 4.522500 6.434520 1.597230
N 5.411660 6.744230 1.777520
N 2.157440 9.757180 1.510740
N 1.870040 8.859010 1.596460
N 2.435230 8.197970 1.144150
N 1.772570 8.500000 2.524030
N 3.801280 8.023030 2.137160
N 3.096680 8.697090 1.660650
N 2.905230 9.593250 2.304500
N 3.505060 8.917850 2.495550
N 5.949640 9.550980 2.278730
N 4.594060 8.188310 1.626870
N 4.965950 9.308580 1.663860
N 5.771630 8.736380 1.887170
N 5.610410 8.995010 0.875739
N 1.465630 10.441800 1.634420
N 1.321660 11.330300 1.876360
N 3.921880 11.008800 1.353170
N 3.228940 11.549500 0.923009
N 4.830400 10.987200 0.907103
N 5.731810 11.250600 1.312160
N 4.987570 9.857540 2.462300
N 2.439910 7.804570 3.641180
N 1.915800 7.290890 3.115150
N 2.311700 6.975280 4.075160
N 1.739760 6.202730 4.262960
N 3.968410 7.298980 3.223810
N 3.260870 7.936260 2.937640
N 4.822860 7.039430 2.643030
N 5.898990 7.898210 4.311910
N 2.163990 8.795240 3.339140
N 1.495100 8.350210 3.875570
N 3.200920 9.223560 3.578420
N 3.965930 9.288090 4.160770
N 5.092650 9.423950 3.872470
N 5.858660 8.764120 3.419200
N 2.523420 9.999920 4.335170
N 2.014250 11.537200 4.291150
N 2.457290 9.823100 3.203660
N 1.018250 10.753200 4.276770
N 3.390400 10.065400 3.012190
N 3.132660 10.884800 3.952780
N 3.730200 11.120700 3.287760
N 4.137110 10.240800 3.868220
N 5.365520 10.454800 3.373110
N 4.397930 10.510200 2.959440
N 4.710580 11.054600 3.799850
N 1.645200 7.135510 6.146850
N 1.883090 7.840970 4.550970
N 1.069000 8.862440 4.654010
N 1.361490 9.746120 4.908740
N 0.847341 9.438330 5.633330
N 6.063350 9.301780 5.549940
N 5.295530 9.729270 5.900040
N 5.472360 8.880080 4.575070
N 4.608450 9.297390 4.865390
N 1.457270 10.177300 5.893340
N 2.225370 10.696300 4.866150
N 2.241120 9.771360 5.565810
N 0.747279 11.413800 5.071250
N 3.453680 10.139700 4.543470
N 4.080610 10.969000 4.491130
N 2.844600 11.465800 4.739120
N 5.934860 9.843040 4.565810
N 4.387060 10.182400 5.249360
N 5.074610 10.120000 4.436760
N 1.592590 7.839350 6.759340
N 0.989616 6.360180 7.702360
N 0.793815 7.548830 7.707060
N 0.990705 6.407570 6.158540
N 0.817359 7.085150 6.872500
N 2.461390 9.661250 6.484270
N 0.802249 8.253130 6.542080
N 3.403030 9.435000 6.606480
N 2.291180 10.704700 7.234540
N 3.761640 10.236900 6.221270
N 3.116680 10.602800 6.831320
N 3.376010 11.109200 7.690240
N 4.794090 10.437100 6.179450
N 1.253910 6.199160 9.013170
N 2.214990 6.410900 9.138590
N 2.150580 7.210850 9.617160
N 3.426660 6.466510 9.723050
N 4.449800 7.912190 9.112480
N 4.141850 8.426800 8.388560
N 2.657590 10.653200 8.219590
N 1.304790 6.885790 9.841080
N 4.077070 7.588880 9.938220
N 3.223780 7.265380 10.249200
N 3.098310 6.347820 10.636000
N 5.999780 9.403220 11.390200
N 3.079220 6.264670 11.583800
N 2.622540 6.587030 29.621000
N 2.860000 6.343910 28.549600
N 2.791440 8.055300 29.606800
N 4.994230 9.656670 29.256400
N 5.782700 9.206850 28.882800
N 1.814680 6.650450 30.787900
N 2.336840 7.374460 30.114300
N 4.136070 7.787470 30.379400
N 5.716100 7.565210 30.977000
N 1.405340 9.611070 30.597600
N 1.258690 8.845730 31.087200
N 3.454870 8.548010 30.067200
N 4.338600 8.486860 29.738300
N 4.068530 8.619080 30.864100
N 4.754760 9.709690 30.190700
N 4.441420 9.436350 31.186000
N 1.917540 10.113900 31.226700
N 3.127270 10.851300 31.086200
N 4.207730 10.481300 30.509900
N 2.904300 9.874370 31.219000
N 5.320250 11.283200 30.981700
N 4.886800 11.057300 30.168900
N 4.140910 7.672520 32.575500
N 5.932540 7.334500 31.897100
N 5.090210 7.736930 32.550700
N 1.357310 8.374050 31.951700
N 4.073570 8.072070 31.779100
N 4.931920 9.576530 33.131800
N 5.277400 9.495740 31.674600
N 4.859610 8.490850 33.095100
N 4.622670 8.850770 31.953100
N 3.426540 10.571000 32.388600
N 3.791850 10.216600 31.534300
N 4.067350 11.125400 31.761800
N 4.142430 11.370100 32.789100
N 2.622600 10.631500 31.954900
N 4.055990 10.270300 33.198900
N 4.444640 9.922140 32.430600
N 5.348220 10.633300 32.744300
N 5.893190 9.892670 32.788700
N 6.047260 10.464700 31.674900
N 2.158250 12.696500 1.859220
N 2.101060 11.774200 2.345660
N 3.607630 12.431500 1.747610
N 2.962610 11.801600 2.014630
N 2.663830 12.297100 1.171550
N 3.575700 12.878700 0.865170
N 4.361640 11.878500 0.995414
N 6.008780 11.693400 2.130310
N 2.794600 13.615700 2.154980
N 3.973480 14.700000 2.145700
N 5.205150 13.550100 2.475690
N 4.886900 14.339600 1.964840
N 1.196150 11.615700 3.857440
N 1.132020 12.639300 3.709470
N 2.312520 12.945200 3.822980
N 1.966560 12.126200 3.213230
N 2.688530 12.758900 2.723680
N 3.521260 13.222100 2.617700
N 2.755730 12.091200 3.776650
N 3.216760 14.366200 2.614000
N 2.681300 13.623800 3.304940
N 2.913850 13.624100 4.247020
N 1.227680 13.259400 4.956600
N 1.582120 12.403800 4.535500
N 1.607330 12.994700 5.809360
N 0.996764 12.302400 5.538750
N 3.998130 13.288900 5.620140
N 2.646800 12.937100 5.732420
N 6.069060 12.009100 5.859260
N 1.187850 14.105700 5.835670
N 2.281710 13.402600 4.977220
N 1.462740 14.889500 5.388440
N 2.204930 13.683100 6.105650
N 2.258500 14.344400 5.401470
N 3.771090 14.926400 5.584000
N 3.263050 13.827800 5.282660
N 5.992100 13.990400 5.905910
N 5.271380 14.345400 5.364060
N 4.400860 14.263800 5.665740
N 3.610980 16.820000 5.156740
N 4.222220 16.830300 5.932330
N 3.819740 15.941100 5.592600
N 3.999680 12.966600 7.410900
N 4.226270 13.125000 6.489780
N 3.642200 12.010200 7.674810
N 2.749290 12.455700 7.666610
N 4.578250 12.156300 7.141620
N 5.128670 13.251400 6.178670
N 5.314730 12.350900 6.595890
N 6.129930 12.933200 6.346710
N 3.877850 14.615600 6.727700
N 2.586540 14.519900 7.348950
N 3.416980 14.002800 7.297300
N 3.039920 14.631700 6.315690
N 3.318810 13.684700 6.225790
N 5.090770 14.066100 6.694900
N 5.341110 14.936800 6.585130
N 2.627530 15.400400 7.086320
N 3.534920 15.807500 7.077720
N 4.181200 15.808300 7.947280
N 4.428850 15.597800 6.816110
N 4.784430 16.462500 6.724620
N 4.473740 16.723300 7.578070
N 2.884680 12.883400 8.493790
N 3.443500 16.399900 7.994180
N 3.470060 11.884700 30.923700
N 4.386590 11.584400 30.949700
N 5.237360 12.009300 30.373700
N 5.693420 12.514900 30.963500
N 1.038320 13.190600 31.987600
N 3.317490 11.893800 31.850000
N 3.242740 12.302700 32.713900
N 5.879820 11.834400 32.908100
N 5.026530 12.324600 33.026500
N 1.454490 13.737700 32.750200
N 1.212030 14.339500 32.083400
N 1.070920 15.183400 31.649300
N 3.858460 17.317700 7.996680
N 9.752770 5.681290 4.929370
N 10.604500 5.262070 4.920720
N 11.408900 4.882720 5.100200
N 10.453400 6.141960 4.427970
N 6.861880 6.015360 10.458700
N 6.209680 7.239680 2.405810
N 6.252870 6.379640 2.021800
N 6.222710 9.575280 1.286930
N 7.469270 9.722820 2.441040
N 7.507510 11.146100 1.104710
N 6.198350 10.576300 0.833921
N 6.697210 11.124100 1.785610
N 6.758580 10.127400 1.890330
N 7.062820 10.147500 0.965975
N 8.406910 10.786700 1.331100
N 7.927890 7.358670 3.098420
N 7.290510 7.555100 3.829350
N 9.742430 6.480690 3.811350
N 10.389600 7.186030 3.802670
N 7.428950 8.626190 4.086110
N 7.096980 8.957250 3.065600
N 6.383880 8.918010 4.167760
N 7.166700 9.675560 3.798880
N 6.377700 9.751230 3.100070
N 6.418810 7.992840 3.504470
N 8.106010 8.199680 3.584300
N 7.990670 9.336070 3.149940
N 8.126010 9.237570 4.212870
N 9.732980 9.685770 3.867500
N 10.084600 8.817140 3.657130
N 10.351300 8.053940 4.190680
N 6.333530 10.315200 3.846720
N 7.681970 10.341300 4.240480
N 6.678800 7.433440 4.535460
N 7.128740 9.363510 5.775180
N 6.921870 9.582240 4.814760
N 9.064490 9.333020 4.555260
N 6.352130 10.191700 5.611860
N 6.413970 11.148500 5.825070
N 7.318920 10.354900 5.282580
N 7.404240 10.742900 6.170360
N 7.928800 11.501500 6.556980
N 7.841820 9.832250 6.279690
N 8.510770 10.538900 6.236300
N 8.960640 10.549700 7.097090
N 8.770030 11.148100 7.794790
N 6.592450 10.813300 8.930860
N 6.681670 11.337800 8.106820
N 7.101200 10.629800 9.723300
N 6.706620 6.571280 11.226200
N 7.516690 7.407140 10.995000
N 7.000340 8.169030 11.091800
N 6.641250 9.872580 10.851300
N 7.406160 9.871040 10.219100
N 7.933090 7.713490 11.778600
N 6.567000 6.311800 12.307900
N 7.319700 6.893290 12.350300
N 7.957860 6.195820 12.167300
N 8.489340 6.982680 11.931900
N 6.827220 8.928280 11.664700
N 6.948430 8.744820 28.915700
N 7.701760 9.337090 28.827900
N 6.425760 8.942970 28.144700
N 9.649110 9.438480 29.416300
N 7.008410 10.046800 28.762700
N 7.552540 10.513500 29.382400
N 6.530440 6.784270 31.368100
N 9.205750 7.550600 31.436200
N 9.751960 9.511230 31.228700
N 9.304070 9.262060 30.274800
N 10.068200 8.579930 29.757500
N 10.364700 8.930400 30.591100
N 11.132900 8.760500 31.149600
N 10.883100 9.656550 31.162400
N 9.862480 8.603810 31.425100
N 7.511230 11.153000 30.666100
N 7.645950 10.206000 30.530600
N 6.681350 11.061200 31.251300
N 8.210380 10.171100 31.298500
N 8.968290 10.085000 30.690700
N 6.988730 6.828170 32.173400
N 7.542960 7.567960 31.920000
N 8.026480 6.761150 31.699900
N 8.562120 7.316980 32.174600
N 9.551890 7.937530 32.332800
N 10.212800 7.715720 31.471000
N 6.891480 9.306220 33.158300
N 7.755600 9.706490 32.730000
N 8.090850 9.283430 31.950900
N 9.031730 9.007130 32.014100
N 8.406100 8.234350 32.071800
N 6.263010 11.140700 32.329600
N 6.987890 10.216000 32.516400
N 9.641910 10.135900 31.906500
N 10.516000 9.805160 32.066400
N 6.682390 11.754200 1.106490
N 8.236360 11.663200 1.731280
N 8.662110 11.934200 0.925649
N 8.863230 12.698700 3.590820
N 9.257800 13.237800 4.294310
N 7.571890 12.845600 4.533210
N 6.770220 13.362800 5.832580
N 7.597240 12.675000 5.486930
N 8.748930 12.941800 4.994800
N 8.248040 12.159900 4.562500
N 7.853680 13.583700 5.348980
N 7.296400 14.374700 5.777560
N 6.682540 13.672900 4.929840
N 7.762090 14.454800 4.967910
N 7.045030 15.312700 5.735160
N 7.347280 13.059000 6.683110
N 7.833340 12.334900 7.135570
N 6.169730 11.794200 6.794820
N 6.545410 12.584200 7.185110
N 8.198880 13.078300 6.307820
N 6.274170 14.677100 6.475760
N 8.916200 13.814300 7.828640
N 8.136880 14.372000 7.638760
N 8.160200 15.149500 7.064790
N 9.224160 14.831000 7.698600
N 9.136210 14.518700 6.857910
N 8.469820 13.796500 6.910670
N 7.663230 15.703200 6.411390
N 9.739400 14.169000 8.177570
N 6.856330 12.134800 30.920300
N 6.157380 11.955300 31.550400
N 7.260320 12.304000 31.842000
N 8.187280 12.501000 32.073600
N 8.743360 11.792000 32.512200
N 27.606600 8.175140 9.548320
N 26.768100 7.796120 9.877190
N 26.524500 7.669340 11.123700
N 26.476800 8.432470 10.571800
N 27.308400 7.847320 11.628300
N 31.442000 1.727970 1.359130
N 30.758200 2.071770 1.915360
N 32.029200 0.994790 1.503030
N 32.784200 1.534340 1.248360
N 30.121100 2.628370 2.447930
N 31.278700 5.462300 1.802190
N 31.688400 5.793510 0.984398
N 32.517300 5.187920 0.926383
N 32.406800 4.844600 3.769890
N 33.161000 4.364690 3.565970
N 32.319700 3.827550 4.758430
N 32.624000 3.160600 5.375150
N 31.963400 4.665150 4.585400
N 33.135700 5.878460 8.422760
N 30.706400 5.844160 31.172200
N 30.132300 6.046660 29.878800
N 32.687000 5.719890 31.174700
N 31.957100 2.007560 32.316900
N 32.361600 1.355750 32.909800
N 31.223500 3.888520 32.411300
N 31.815200 3.988050 33.133500
N 31.518500 2.878080 32.308600
N 32.279700 3.404190 32.562900
N 30.337300 5.006920 31.731500
N 30.709000 4.657990 32.517200
N 30.647300 5.816080 32.135400
N 32.675500 5.497760 32.555700
N 31.776700 5.138390 32.785000
N 31.035200 6.283700 2.190860
N 30.729500 7.202600 1.971970
N 31.503700 7.110860 1.439590
N 32.408300 7.117630 1.131800
N 32.777200 6.310190 1.030130
N 32.644700 6.897290 2.134160
N 32.737300 9.294950 1.242570
N 31.871300 8.923650 1.432660
N 33.133300 8.123410 1.070130
N 32.329000 8.054690 1.583830
N 31.886300 11.208400 1.996460
N 33.129900 10.809800 2.312910
N 31.022900 6.779050 3.979690
N 30.937900 7.719040 3.681030
N 33.225400 6.960630 2.901160
N 32.625400 6.281080 3.143380
N 30.437200 8.138080 2.905620
N 30.043100 9.661700 3.097110
N 29.930300 8.826330 3.367280
N 31.531500 9.556020 3.385740
N 32.046000 8.990830 3.982110
N 32.989800 9.711480 4.136800
N 30.581100 10.348600 3.468130
N 30.603000 11.456900 3.753120
N 32.255900 10.639400 2.644830
N 32.457600 10.647000 4.147960
N 31.505100 10.674700 3.415350
N 32.498900 9.805990 3.315640
N 31.606200 11.034700 4.292590
N 32.279300 7.761460 5.678890
N 29.480400 9.295190 5.633480
N 31.370400 8.655740 5.839200
N 30.309600 9.199900 6.098640
N 30.191600 9.677980 5.113170
N 31.248100 9.677990 5.504980
N 32.286600 9.198840 5.824480
N 31.615800 8.944790 5.009260
N 32.694000 9.165980 4.848750
N 33.035100 8.418440 5.672990
N 30.203000 10.432100 5.700260
N 31.874900 9.867380 4.355950
N 32.119000 10.133600 5.696320
N 33.036100 10.459600 5.044840
N 31.198100 6.660760 7.716770
N 32.498300 7.616310 6.753340
N 31.606000 7.524630 7.796230
N 32.479800 7.147920 7.922480
N 30.094700 9.000900 7.002700
N 31.354800 9.354250 6.498720
N 32.403500 8.155270 7.570280
N 32.245000 8.522910 6.472420
N 30.623700 10.117900 6.505850
N 31.247800 9.894350 7.242060
N 27.962600 7.800420 8.770520
N 30.950300 7.322220 8.659540
N 30.558700 7.896530 8.083980
N 32.896400 7.284520 9.760840
N 31.571900 6.602510 8.554800
N 33.056200 6.328770 9.617420
N 29.148800 8.908220 8.509150
N 28.870300 8.032880 8.807940
N 29.826700 8.498290 8.009170
N 31.128400 8.501630 8.912040
N 31.456300 9.149250 9.513010
N 32.788800 8.197830 9.544070
N 32.249400 8.838130 9.092340
N 31.739000 8.549630 8.141720
N 28.391500 8.438860 11.506700
N 28.901400 8.938110 10.879900
N 30.604200 9.722850 11.108700
N 29.460600 9.992840 11.156400
N 30.292300 10.643800 11.189500
N 29.492800 9.164800 11.591800
N 27.989100 7.989930 12.263800
N 30.784800 6.556240 29.423600
N 29.685100 6.749590 30.693400
N 29.942500 7.000570 29.811900
N 31.377000 7.370550 29.717200
N 30.392500 6.886950 31.312400
N 30.790600 7.422100 30.451500
N 31.026600 6.412170 30.429500
N 31.334500 7.097620 31.255200
N 31.900800 6.999380 30.370000
N 32.205200 6.577050 31.196900
N 33.201000 8.023170 31.295500
N 32.355600 7.815720 32.966500
N 31.589900 7.277690 32.971300
N 32.478700 8.747030 33.029000
N 32.611200 13.219300 1.158260
N 33.154600 13.336200 1.944540
N 29.292900 14.278300 2.305430
N 28.516000 14.810100 2.171880
N 30.789400 13.489300 2.502820
N 30.249000 14.141900 2.118130
N 28.394600 15.665900 2.536860
N 28.361300 16.371200 1.871220
N 32.546500 16.985700 2.073910
N 30.905400 12.512500 2.563300
N 30.208700 12.142100 3.304560
N 30.796700 12.838600 3.486080
N 31.942300 11.686200 2.815450
N 32.713900 12.366500 3.474910
N 31.489200 11.897100 3.619940
N 33.048400 12.899300 2.742050
N 33.015200 13.305000 32.782800
N 28.788800 17.255000 1.947110
N 29.724500 17.242700 1.954330
N 30.095500 17.125000 1.064700
N 31.002000 17.388800 1.125620
N 31.472900 18.174600 1.283920
N 31.713400 17.459600 1.932890
O 2.788300 0.919943 1.550770
O 3.681380 1.165200 1.788830
O 4.432920 0.773147 1.399630
O 6.123170 1.677610 31.995400
O 4.859190 0.884593 32.192300
O 1.076110 32.106100 1.722100
O 1.565360 32.431500 0.909035
O 2.490250 32.740500 1.060960
O 4.689500 32.455700 0.959909
O 4.967750 31.956900 31.101600
O 5.767230 32.011400 30.584700
O 3.784940 32.060000 32.007200
O 4.191530 32.753300 32.471600
O 4.710700 31.999000 32.040800
O 5.290510 32.838400 32.834600
O 6.857050 2.111080 31.423500
O 6.271180 1.063000 31.241200
O 7.805020 4.228620 30.925400
O 7.907580 5.352700 30.847500
O 7.047480 4.910460 30.961900
O 6.270980 1.517390 32.939700
O 6.929890 0.841455 32.744900
O 7.166250 1.475910 32.024400
O 7.750410 3.480840 31.551600
O 7.087090 2.851290 31.972500
O 7.664490 5.328970 32.341200
O 7.025920 5.844400 31.813000
O 8.253660 5.516340 31.694900
O 6.181940 32.278300 31.368600
O 6.333680 32.879200 30.616800
O 5.505860 1.248600 1.303170
O 5.730830 32.174600 0.981774
O 5.485540 32.881700 1.563280
O 7.263620 0.947370 3.148520
O 7.202140 1.850660 3.423310
O 7.866940 0.854596 4.216730
O 7.446000 1.716380 4.372890
O 8.494390 0.847684 4.995120
O 9.937460 1.254520 6.022030
O 7.094840 31.867700 2.437540
O 6.326890 31.990200 1.950300
O 6.964350 32.296400 1.288100
O 11.286600 31.443400 3.914570
O 7.324590 32.508500 3.131920
O 8.293450 32.770800 5.713630
O 9.511690 33.025700 5.069270
O 9.306700 33.126500 6.002220
O 10.355600 32.763100 5.458140
O 11.133100 32.540300 5.897970
O 11.235100 31.912900 5.195420
O 11.429700 32.258100 4.360690
O 8.636650 32.219100 6.439600
O 9.589580 32.241500 6.662880
O 10.249800 33.017900 6.558980
O 6.463700 32.581600 33.059500
O 12.360900 30.475000 4.901480
O 13.272800 30.421100 4.569830
O 13.051600 31.171400 5.876510
O 13.060300 31.342400 4.894240
O 12.057800 31.213500 4.391660
O 5.983280 5.080020 0.815793
O 6.050920 5.038100 2.035330
O 1.971210 1.353310 3.444840
O 1.015730 1.333300 3.611030
O 2.662090 1.717650 4.042260
O 2.174810 2.807320 3.914440
O 5.768400 5.633290 2.778510
O 2.533360 1.532210 4.990280
O 1.403910 2.479740 4.513290
O 1.605240 1.546080 4.378480
O 3.405810 1.764190 5.537840
O 3.110610 0.895318 5.413930
O 2.467710 4.261380 4.753350
O 2.017960 3.442890 4.596620
O 2.229750 4.669450 5.585240
O 2.614840 5.526960 5.283110
O 3.572070 2.360990 6.279300
O 3.781330 3.397940 7.076880
O 3.630250 3.283620 6.162990
O 4.375540 2.609440 7.303830
O 5.408310 6.184600 3.437600
O 4.569140 6.421430 3.826680
O 3.090930 7.156370 4.685080
O 4.204010 7.067300 4.546120
O 2.575720 6.477120 5.024850
O 3.717870 7.004530 5.402070
O 4.860530 6.429550 4.752370
O 6.453720 4.446070 1.374700
O 6.895270 5.179840 33.082300
O 6.454560 5.968420 32.802500
O 0.799339 2.132260 6.030370
O 1.602740 0.949545 5.224910
O 1.423870 1.889300 5.391760
O 2.227330 0.979987 5.881360
O 1.155170 30.694800 5.855440
O 1.994870 31.205600 4.988660
O 1.173020 31.280800 4.575560
O 2.213840 32.021400 4.566230
O 2.115680 32.656200 5.526400
O 2.456170 32.931000 4.660480
O 32.835800 2.741810 6.553090
O 30.472100 30.623700 2.073640
O 31.159400 31.089900 1.642780
O 31.347700 31.980900 1.822520
O 31.756000 32.626600 2.359190
O 30.370100 31.018100 2.930900
O 31.268700 31.289900 2.700870
O 30.657200 30.809500 4.067790
O 31.602600 31.013000 4.131290
O 32.532500 32.100800 3.773470
O 31.485400 31.810700 3.531950
O 32.328700 33.045900 2.981370
O 32.842200 32.986000 3.816980
O 33.211600 30.582700 5.050000
O 32.533300 31.273300 4.781170
O 32.580000 30.682700 5.938610
O 32.002000 31.889700 5.381070
O 32.813200 32.217700 4.683520
O 33.118500 31.474600 5.912000
O 31.916700 31.323800 6.157360
C 2.421580 2.189810 5.858590
C 5.948910 1.197550 4.736500
C 4.661470 2.263470 5.874150
C 5.285430 1.619650 5.644720
C 5.373970 2.533600 5.134260
C 2.276180 2.588260 4.998340
C 3.552680 2.800440 5.220940
C 2.734140 3.167340 5.623020
C 4.669580 3.123610 5.451990
C 2.391280 1.709600 6.728460
C 1.522200 1.531310 6.347230
C 1.256340 1.248610 7.224080
C 5.805980 33.042400 5.415060
C 1.601350 31.569800 7.657470
C 0.996418 32.121300 6.733050
C 2.170560 32.342300 7.790560
C 1.315110 32.748600 7.467350
C 0.835139 29.355000 9.515430
C 2.246810 29.080600 9.005840
C 1.298750 28.873400 8.863360
C 3.103930 29.109900 9.395540
C 3.090570 29.306500 8.429560
C 3.932120 29.786300 8.492180
C 3.637160 30.321000 9.227980
C 1.000190 31.466100 8.355050
C 3.152410 30.900500 9.848420
C 7.646560 2.411110 6.076220
C 6.819260 0.880686 4.694060
C 6.670930 2.096770 5.297150
C 6.163470 1.279890 5.800730
C 6.274270 2.937680 5.047340
C 7.383100 2.671530 5.066260
C 8.261760 2.789770 5.451020
C 6.834700 2.120980 6.435600
C 6.653320 2.398200 7.373130
C 6.801630 3.469620 7.833780
C 7.571800 4.029050 7.783300
C 7.777600 4.877480 7.375950
C 7.887640 5.755440 7.779340
C 8.279780 5.705960 6.923490
C 8.807920 4.933540 7.146310
C 7.297850 2.024040 8.060230
C 7.514170 2.948900 8.206050
C 8.897730 5.263330 9.559840
C 8.527010 4.577300 7.996700
C 9.084760 4.972230 8.676960
C 9.723880 4.284880 9.924460
C 9.227990 4.928970 10.397200
C 6.866880 33.063400 5.623980
C 6.584840 33.130100 6.578450
C 32.941900 0.908385 7.672200
C 32.269000 31.427000 7.330290
C 33.044500 30.930900 7.758870
C 32.136600 32.852000 7.685620
C 31.601000 32.090200 7.410230
C 33.058700 31.966500 7.602980
C 32.403100 29.317300 9.040400
C 32.377400 30.441800 8.155010
C 31.785800 29.860400 8.538610
C 32.549900 29.422600 9.975130
O 2.538430 1.040500 7.591990
O 4.420960 3.574750 7.951340
O 1.700550 1.013550 8.045430
O 3.595760 1.160600 9.456590
O 4.397020 1.229910 8.856360
O 5.235430 1.432960 9.417580
O 5.152600 1.908760 8.552410
O 3.883290 3.946520 8.733960
O 4.830060 2.762680 8.259670
O 0.795615 1.090440 11.266400
O 1.089550 2.351590 13.190200
O 1.016220 2.979430 13.862800
O 1.050960 32.061100 9.192740
O 1.569410 32.683900 8.498470
O 2.600200 33.031900 8.416010
O 3.259050 32.853900 9.061930
O 33.193500 1.955600 10.978600
O 32.755900 2.566980 11.551400
O 33.251200 2.460930 12.335900
O 32.093000 1.865180 14.254700
O 32.666100 2.597600 14.063100
O 32.422100 32.574200 9.259840
O 32.548700 31.601700 9.520710
O 33.149700 32.519400 8.451940
O 33.260400 32.939500 9.472020
O 32.689200 31.224900 10.449200
O 31.759600 31.333500 10.332300
O 32.170100 32.077800 10.791300
O 32.204700 32.808800 10.220500
O 33.071500 32.994500 10.596800
O 1.727600 2.007140 7.629070
O 1.406810 3.753780 7.276740
O 2.017710 3.066580 7.338000
O 2.451080 2.523090 8.037450
O 1.717050 3.305560 9.136060
O 2.027220 3.887140 8.032790
O 1.775950 4.243480 8.840560
O 1.448280 2.782480 8.174540
O 30.696800 2.364990 4.117630
O 31.362700 3.233870 4.060710
O 30.675800 3.976380 3.941940
O 30.945600 3.572440 5.842820
O 30.167100 2.869190 4.689990
O 30.201900 3.842360 4.726810
O 31.267700 3.826070 4.836600
O 31.581900 3.048410 5.297040
O 31.197100 1.511200 7.236150
O 31.289400 2.443460 6.991390
O 31.795200 1.989710 7.908410
O 30.632500 3.113900 7.173660
O 31.343400 3.717570 7.483080
O 31.236900 4.116710 6.603200
O 31.432500 1.107610 8.009710
O 31.066000 3.552040 8.766660
O 30.455600 2.842150 8.953140
O 31.228400 2.950580 9.500860
O 31.579500 2.767930 8.472410
O 33.211400 3.041620 8.627960
O 32.054500 3.377880 9.204460
O 32.553000 3.655010 8.368520
O 0.826131 3.741580 6.377240
O 1.110640 5.572260 7.184920
O 1.808580 4.872380 7.224660
O 1.443980 4.440440 6.457790
O 2.040480 7.858160 10.432900
O 3.109750 7.852950 11.377500
O 1.148070 8.057880 10.165000
O 2.910400 8.338250 10.577700
O 3.671310 8.068320 12.148600
O 4.448300 8.570010 12.021400
O 6.100640 9.245800 12.637100
O 5.289880 8.769470 12.454800
O 6.212510 9.540170 13.560400
O 32.279000 4.234770 7.381460
O 32.456400 3.868890 6.555790
O 32.121600 5.802380 6.272900
O 32.558400 5.288550 7.456530
O 31.700900 5.619050 7.180280
O 33.113800 4.540250 7.099390
O 32.913900 6.143130 6.915710
O 32.350900 5.601240 9.411220
O 31.965800 5.702510 8.588190
O 32.067600 6.612140 7.040200
O 32.314500 6.180680 7.825670
O 32.131100 6.513390 9.349340
O 31.806400 7.403430 9.383200
O 33.024700 7.900560 10.856900
O 32.120800 7.681770 10.826800
O 31.264900 8.058890 10.701700
O 31.694000 8.199480 9.870770
O 4.982010 5.961130 6.637380
O 5.868990 4.961040 6.927870
O 5.789440 5.681200 6.299510
O 5.697270 3.321570 8.038960
O 6.149950 3.825290 8.712250
O 5.891600 5.274740 8.119460
O 2.362910 6.455130 5.988540
O 2.722020 6.586690 7.864130
O 2.612040 7.406230 7.407720
O 3.551660 6.796290 7.448160
O 4.106560 6.295990 6.791950
O 2.882230 6.793970 6.727180
O 6.407720 4.611640 7.677640
O 7.079620 2.265430 9.085970
O 8.069550 1.775140 9.323990
O 9.180530 1.664330 8.877890
O 9.980480 1.736870 9.724010
O 10.041900 1.962710 8.762160
O 6.242660 2.779230 8.613930
O 7.772690 2.586250 9.710490
O 6.852110 3.222690 9.222040
O 7.079430 4.123390 8.848420
O 6.691170 6.012490 8.420000
O 7.137870 4.903170 8.346140
O 7.226970 5.534690 9.086640
O 6.250030 5.346560 8.996980
O 8.926740 1.788350 9.782730
O 10.616200 2.373980 9.827000
O 10.029300 2.102340 11.013500
O 10.660000 1.646830 10.471900
O 5.717520 2.160870 12.840100
O 5.680670 2.414710 11.953300
O 5.498680 1.373250 12.429700
O 5.477390 3.218800 12.480000
O 5.527890 3.304910 13.432500
O 5.430630 27.904500 11.320700
O 5.110850 28.779400 11.062700
O 5.264740 29.725700 10.897400
O 5.220810 31.412800 10.305300
O 5.708080 30.530500 10.579200
O 6.026910 31.153200 9.876490
O 5.553630 31.478700 11.199500
O 5.736110 32.501700 11.786500
O 5.572120 33.006300 12.734500
O 7.115020 2.853190 12.878700
O 6.451270 3.423420 13.307800
O 6.417580 31.227200 10.931700
O 6.839580 30.633200 11.477900
O 6.457780 32.506000 10.886500
O 7.318590 32.708400 11.300200
O 8.027070 32.114100 11.390600
O 6.948060 31.028500 12.379700
O 6.438570 31.927200 11.669600
O 6.475640 31.718600 12.929800
O 7.334790 32.116000 13.232600
O 7.301260 32.089600 12.285900
O 6.252320 33.257700 11.642400
O 6.444280 32.777800 12.429400
O 8.223440 32.371900 12.479100
O 8.656570 32.797100 11.747800
O 1.869630 3.395300 13.227500
O 2.393530 3.697350 11.986500
O 2.562450 3.057290 12.689800
O 2.352760 4.604740 12.355100
O 1.812950 4.602390 13.167900
O 1.003370 4.964710 12.768600
O 4.161540 1.805000 13.717800
O 3.561850 2.401960 14.092000
O 4.039590 0.895294 14.094600
O 2.511210 2.919020 13.705000
O 2.526020 2.571730 14.586200
O 3.248090 3.227400 14.354000
O 2.109520 31.270400 11.476400
O 1.108930 30.489900 11.284300
O 2.877640 30.941300 10.885200
O 3.453060 31.514100 11.325500
O 1.911730 30.615900 12.185100
O 1.306440 29.941100 12.021000
O 0.867098 30.850700 12.119400
O 1.510050 31.776100 12.240600
O 0.948095 32.195500 12.890600
O 2.252220 31.951200 12.949000
O 3.712130 32.764100 13.432900
O 3.018240 32.034800 13.533000
O 3.187480 32.963700 14.225400
O 32.075500 4.685040 12.070700
O 32.789100 4.368870 12.627600
O 31.712100 5.437680 12.508100
O 32.589400 31.161500 11.656400
O 33.130600 31.901200 12.051800
O 2.153270 1.101740 16.345400
O 2.862370 0.917377 15.700500
O 3.733500 0.847238 15.396800
O 1.792570 0.757522 17.155600
O 1.871760 0.834372 19.824800
O 1.347440 1.278260 19.171100
O 1.044560 1.322210 20.671600
O 1.995680 1.102440 20.734200
O 1.105810 32.961800 17.840700
O 1.508440 32.996700 18.725000
O 0.854728 31.156200 22.188600
O 27.413800 26.358300 24.250900
O 27.638600 26.379100 25.181000
O 33.220200 1.040130 21.522000
O 29.210300 26.836400 22.325300
O 28.841600 26.890100 23.249700
O 28.257000 26.660900 23.937600
O 29.289200 27.765200 22.458000
O 28.318600 25.767200 24.446800
O 28.545000 26.647800 24.908100
O 28.950700 28.985600 22.027000
O 29.082600 28.223000 21.598400
O 29.575000 29.651600 22.218600
O 30.073200 30.252800 21.784700
O 33.101600 30.269200 22.388100
O 33.262000 32.605000 21.499300
O 33.218200 31.623800 21.326000
O 30.554900 30.371200 22.629300
O 32.364100 30.092200 22.964300
O 31.472100 29.981600 22.608500
O 5.456150 2.384670 16.485700
O 5.746980 4.084260 16.771400
O 5.906810 3.203560 16.668100
O 5.854630 1.538800 18.405200
O 5.992830 2.495880 18.659800
O 5.217060 4.093000 17.548900
O 5.372880 4.648950 18.278500
O 6.136550 4.602930 17.733100
O 3.212390 1.741470 20.983300
O 3.506880 0.844214 21.237400
O 5.736390 32.473200 17.914100
O 4.330640 31.414100 20.302200
O 5.211150 30.970300 20.034400
O 5.938220 31.321600 18.857200
O 5.308800 32.060500 18.832800
O 5.522200 31.839500 19.766300
O 3.403770 32.429900 21.513700
O 3.749720 31.931000 20.794900
O 6.773600 2.200450 18.214200
O 6.926920 1.264800 17.561100
O 6.604950 0.900873 18.385900
O 6.982520 3.701250 18.744100
O 7.063060 3.098320 18.010200
O 6.748150 5.421070 17.772600
O 7.302330 4.356760 18.071900
O 7.061840 5.145190 18.654500
O 6.606630 32.215900 18.302300
O 6.286790 33.048300 17.405200
O 6.403280 31.145400 19.633200
O 6.737240 31.916100 19.202200
S 0.884975 4.136530 16.881500
S 5.230010 4.154930 15.869400
S 1.295620 4.962750 16.659100
S 1.315620 5.848850 16.975500
S 5.142170 5.000110 16.406300