475
Atoms. Timestep: 0
H 1.135570 5.024550 5.511240
H 1.163330 5.080320 5.539440
H 1.105270 4.989940 5.534490
H 1.528680 5.908030 5.311520
H 1.541720 6.014360 5.302220
H 1.523520 5.954070 5.271700
H 1.026970 6.083230 32.787000
H 0.991391 6.125480 32.737000
H 1.627890 6.238290 1.013930
H 2.433470 6.709630 1.462000
H 2.455120 6.736870 1.493530
H 1.662240 6.232510 1.058950
H 3.193150 7.461160 1.442480
H 3.192290 7.413200 1.429340
H 3.701020 8.160490 0.924713
H 3.678590 8.211300 0.919476
H 4.078910 11.456900 2.288470
H 4.021220 11.415700 2.308620
H 4.027490 11.466300 2.307290
H 5.859600 10.664000 2.315030
H 4.880260 10.918500 2.095980
H 4.877230 10.873700 2.095580
H 4.922330 10.896600 2.072500
H 5.898610 10.626800 2.286910
H 5.860790 10.630600 2.308690
H 5.116460 11.465700 2.899050
H 6.082130 11.350100 3.276460
H 5.607020 11.310000 2.997330
H 6.027890 11.391900 3.303940
H 5.170230 11.438600 2.875590
H 0.742846 7.725970 4.770410
H 1.423550 6.902570 5.043690
H 1.388130 7.000240 5.025890
H 1.379770 6.942860 5.000540
H 0.818043 7.707060 4.802750
H 0.743724 7.773770 4.784490
H 3.411170 8.019010 7.664180
H 3.682360 9.216080 7.836030
H 3.976380 8.648250 7.067120
H 4.384030 9.581790 6.882120
H 3.956610 10.176700 7.881840
H 4.524880 10.569500 7.158740
H 4.361200 11.346700 7.822870
H 2.839830 7.862670 8.513310
H 2.415460 8.221120 9.386990
H 3.114080 8.823290 8.559120
H 2.820050 9.391110 9.328020
H 3.388330 9.783900 8.604930
H 3.662580 10.744500 8.650740
H 3.094300 10.351700 9.373830
H 3.365490 11.548800 9.545680
H 2.251770 8.998320 10.051100
H 2.392620 9.986010 10.327700
H 2.800270 10.919500 10.142700
H 1.307710 7.654150 30.451600
H 1.325580 7.739480 30.438300
H 0.816853 6.992190 30.942900
H 0.822282 6.904010 30.974600
H 2.045750 8.378440 30.400500
H 2.084400 8.443060 30.405600
H 2.171670 8.009700 31.302600
H 2.148090 7.968050 31.306700
H 2.889980 8.914400 30.853700
H 2.838630 8.882800 30.835100
H 2.352780 7.147260 33.119100
H 1.537890 7.284270 31.571300
H 1.536360 7.230830 31.593700
H 1.625160 6.850910 32.468300
H 1.638700 6.820440 32.499900
H 2.250430 7.557660 32.212900
H 2.258940 7.576340 32.199700
H 2.346200 7.142990 33.096700
H 2.979980 7.868420 32.828100
H 2.964510 7.884480 32.832100
H 3.823340 8.751260 32.615100
H 2.892710 8.301770 31.931000
H 2.862170 8.294870 31.925900
H 3.473900 9.032090 31.638800
H 3.526480 9.027210 31.662400
H 3.781350 8.786300 32.596400
H 3.529810 12.160500 2.892350
H 3.594330 12.157400 2.876950
H 3.522120 12.111400 2.890710
H 3.513670 12.774300 3.685890
H 3.520550 12.815100 3.694390
H 3.598430 12.810600 3.680250
H 5.352660 12.012800 3.702130
H 4.441240 12.086700 3.297240
H 4.506230 12.068900 3.277820
H 4.433460 12.381800 3.685920
H 4.677440 12.633800 4.100310
H 4.754120 12.610900 4.080910
H 5.418130 11.980500 3.678690
H 5.353250 11.989300 3.685960
H 4.687230 11.702500 2.997290
H 4.002210 13.254800 4.498500
H 4.090120 13.241300 4.483130
H 3.998140 13.226900 4.481080
H 5.825070 13.107100 5.308280
H 5.588870 12.560000 4.505200
H 5.099470 12.668600 4.374600
H 5.829260 13.104800 5.276340
H 5.666030 12.522400 4.481780
H 5.913920 13.064300 5.284870
H 6.019260 12.276100 4.374630
H 4.845700 13.347900 5.063230
H 4.845720 13.361700 5.089230
H 4.937650 13.334200 5.070460
H 3.936830 11.705100 8.696550
H 7.237830 11.150400 3.677120
H 7.192820 11.204200 3.686040
H 6.703110 10.770900 2.905760
H 6.746140 10.719700 2.874240
H 6.708360 10.751600 2.890840
H 7.184770 11.210500 3.709870
H 6.273030 11.596700 3.686000
H 6.330030 11.892000 4.079550
H 6.264090 11.939000 4.107020
H 7.184370 11.867200 4.481210
H 7.175520 11.865200 4.511910
H 6.757350 12.504100 5.068900
H 6.685270 12.562800 5.063310
H 6.677830 12.559400 5.096970
H 7.241930 11.803500 4.480420
H 3.295760 1.053040 6.674750
H 4.315260 1.112810 6.504620
H 5.347300 30.364900 6.080610
H 5.817090 31.287400 6.069680
H 5.770950 32.318200 6.155290
H 2.012270 31.064400 6.704600
H 2.561980 30.201600 6.545400
H 3.679790 30.714600 6.392600
H 2.951940 31.377800 6.567270
H 3.467960 29.738000 6.355260
H 4.619460 31.028100 6.255280
H 4.487460 29.797800 6.185140
H 1.966130 32.095100 6.790200
H 2.435920 33.017700 6.779280
H 3.163770 32.354500 6.604610
H 4.103440 32.667900 6.467280
H 3.891610 31.691300 6.429940
H 5.221240 33.181000 6.314490
H 4.831280 32.004700 6.292620
H 2.046370 5.950250 18.190400
H 1.492450 5.842450 19.058400
H 1.416300 5.915550 20.088300
H 1.838340 6.149960 21.004200
H 2.224310 11.549500 16.584800
H 3.178800 11.501500 16.887600
H 3.461750 11.562400 16.516800
H 4.888100 11.542500 16.610400
H 6.087810 11.456500 16.909300
H 6.069770 11.453100 16.949100
H 3.905600 6.552290 17.764700
H 3.590570 6.534940 18.713700
H 2.929640 6.210070 17.716900
H 4.712730 6.885210 18.321100
H 2.140330 11.361600 17.549500
H 2.123380 11.311700 17.587400
H 3.340040 11.275600 17.848400
H 3.109980 11.347000 17.427800
H 3.744810 11.167000 18.179300
H 2.551160 11.092900 18.504500
H 2.566000 11.142100 18.467400
H 4.114070 11.409000 17.229400
H 4.096570 11.382400 17.268300
H 4.275310 11.183200 18.190200
H 5.984620 11.224200 17.912900
H 5.049350 11.316600 17.571200
H 4.731400 11.202300 18.019700
H 5.083170 11.417700 17.108700
H 5.366230 11.022300 18.771200
H 5.380220 11.041500 18.733400
H 5.968840 11.215300 17.951700
H 2.345920 6.216570 19.875500
H 2.960500 6.500230 20.611600
H 3.275530 6.517590 19.662700
H 2.660950 6.233920 18.926500
H 4.205150 6.818600 19.449800
H 3.890110 6.801250 20.398800
H 5.134760 7.119620 19.237000
H 5.058620 7.192720 20.266900
H 3.393040 10.951600 19.090300
H 3.406480 10.994100 19.053500
H 4.423420 10.925800 19.187900
H 4.436550 10.957300 19.150900
H 2.645470 6.482880 21.560600
H 3.621420 6.825100 21.608500
H 4.504690 7.084920 21.135000
H 2.243520 11.593900 16.545800
H 3.952830 11.634900 16.268600
H 3.769720 11.839000 15.348600
H 3.791590 11.860800 15.307900
H 2.847920 11.776600 15.725300
H 2.826920 11.742500 15.765400
H 4.448340 11.597800 16.357200
H 5.641990 11.671900 16.032100
H 5.662140 11.676000 15.991400
H 4.800110 11.813100 15.446200
H 4.821660 11.824000 15.405300
H 5.859900 22.026300 11.026900
H 5.850020 22.005500 11.012800
H 5.632950 22.089700 12.230100
H 5.419030 22.244400 13.208300
H 5.393550 22.241700 13.189100
H 5.651630 22.100500 12.246400
H 6.041500 21.505700 12.949500
H 6.016800 21.500100 12.940800
H 5.576300 21.793500 14.873300
H 5.777400 21.652100 13.899800
H 5.808900 21.649600 13.911400
H 5.537990 21.804000 14.858800
H 5.261760 22.695200 11.543300
H 5.249100 22.679400 11.519400
H 4.872540 23.045400 12.436500
H 4.853900 23.037300 12.406900
H 4.796550 22.983000 13.467200
H 4.770290 22.983300 13.437400
H 5.020680 22.531900 14.334900
H 5.054140 22.524800 14.359100
H 7.012920 20.468300 11.546700
H 7.028850 20.486600 11.539900
H 6.495620 21.196200 11.022800
H 6.506700 21.217900 11.025700
H 7.263320 20.016900 12.444200
H 7.286440 20.028400 12.431900
H 6.663970 20.767000 12.690700
H 6.640060 20.758500 12.692500
H 6.256210 21.348100 11.981800
H 6.274100 21.361800 11.987600
H 7.179710 19.962900 13.474700
H 7.210450 19.966000 13.462500
H 6.784510 20.320800 14.362200
H 6.821240 20.316200 14.355700
H 6.431370 20.910900 13.652600
H 6.400650 20.910500 13.651500
H 6.183590 20.994700 14.868800
H 6.223100 20.985100 14.872100
H 3.956680 25.994900 22.409800
H 4.026830 26.101300 22.304100
H 4.133530 27.102100 22.061100
H 4.096400 26.984100 22.138000
H 3.593340 25.290900 23.076400
H 3.683870 25.366600 22.947900
H 3.103750 25.060800 23.959100
H 3.196540 25.094800 23.819900
H 3.112950 26.060100 23.921100
H 3.414480 26.230400 23.373900
H 3.639310 27.098100 22.930500
H 3.145090 27.094100 23.799900
H 3.122150 27.059400 23.883200
H 3.539410 26.527100 23.146500
H 3.548610 27.526400 23.108500
H 2.695420 25.358600 24.686600
H 2.619090 25.366200 24.821500
H 2.314790 26.087500 25.315700
H 2.269220 26.125300 25.432500
H 2.147890 27.134700 25.628300
H 2.156640 27.086100 25.538600
H 2.920250 26.226400 24.243200
H 2.650870 27.090100 24.669200
H 2.704880 27.591600 24.619900
H 2.695690 26.592300 24.657800
H 3.975380 28.100700 22.284000
H 3.975070 27.993400 22.333900
H 3.093640 29.093400 23.779800
H 3.140540 29.057900 23.807200
H 3.625200 28.752500 22.944800
H 3.594750 28.829600 22.913100
H 3.131340 28.058600 23.845200
H 3.369920 27.961800 23.356500
H 2.875700 27.957800 24.225900
H 2.263350 28.086900 25.295600
H 2.287620 28.123800 25.356500
H 2.606310 28.821600 24.651900
H 2.650950 28.827800 24.690000
H 7.570370 23.295300 23.443500
H 6.784520 23.951800 23.291000
H 7.916020 24.185900 23.739300
H 8.541450 23.116000 23.754500
H 9.437570 23.462000 24.140700
H 7.328070 24.993100 23.686400
H 6.394470 24.909700 23.337800
H 6.504740 25.912300 23.571500
H 7.673730 25.883700 23.982200
H 8.849620 24.269200 24.087900
H 8.261680 25.076400 24.035100
H 7.085780 26.690900 23.929400
H 9.195280 25.159800 24.383700
H 8.607330 25.967000 24.330900
H 10.018600 24.240600 24.498600
H 10.128900 25.243100 24.732300
H 7.981900 27.036900 24.315600
H 8.952980 26.857600 24.626700
H 9.738830 26.201000 24.779200
H 0.953184 25.404400 29.523300
H 0.761022 26.018300 30.334500
H 10.050000 27.621600 3.479800
H 11.230300 27.517600 3.843480
H 10.062700 27.694700 3.482730
H 11.056400 27.756600 3.388510
H 11.249200 27.051500 4.958830
H 11.230300 27.010600 4.974410
H 10.440300 27.304200 4.364110
H 10.424200 27.242400 4.367520
H 10.856000 28.403800 1.824830
H 10.863600 28.461700 1.818180
H 10.208100 28.046800 2.549110
H 10.217600 28.118400 2.550850
H 11.122200 27.919800 2.934270
H 11.456800 28.140100 2.556240
H 12.144400 27.390600 4.228650
H 12.643300 27.496900 4.032340
H 12.050000 27.818500 3.294290
H 12.950500 27.665800 3.704610
H 12.036300 27.792800 3.319440
H 11.649600 27.435000 4.126560
H 13.882400 27.518600 4.037720
H 13.864600 27.538800 4.089770
H 12.252400 26.988400 5.137850
H 13.236500 27.175200 4.770390
H 12.272700 27.004300 5.107540
H 13.216600 27.181700 4.814050
H 12.850900 28.585500 1.629750
H 12.842300 28.574900 1.664470
H 12.450500 28.202000 2.462020
H 11.820200 28.597200 1.501030
H 11.827400 28.632600 1.481040
H 11.928300 28.195000 2.410230
H 13.659800 28.332700 2.224470
H 13.648500 28.343200 2.271360
H 12.842400 28.068000 2.795400
H 13.043700 27.880300 3.200070
H 14.022600 27.963900 3.159080
H 14.037400 27.942200 3.105850
H 9.988380 2.212520 3.321670
H 10.126200 1.266680 3.719530
H 10.825500 1.834570 4.153820
H 10.893500 2.805850 3.925640
H 10.874400 3.989800 3.559660
H 10.262200 3.209250 3.263160
H 11.524700 2.402450 4.588110
H 11.456700 1.431170 4.816300
H 11.388700 32.991600 5.044490
H 10.638700 33.156900 4.350130
H 11.660800 4.345020 4.131740
H 12.175100 0.815110 5.616570
H 12.156000 1.999060 5.250590
H 12.787200 1.595660 5.913070
H 12.410700 4.179730 4.826100
H 11.592800 3.373740 4.359930
H 12.224000 2.970340 5.022400
H 12.923300 3.538230 5.456700
H 13.061100 2.592390 5.854550
H 14.980200 1.694440 29.266300
H 14.943400 1.739090 29.282000
H 15.272600 0.768016 29.138700
H 14.755600 2.490550 29.888900
H 14.739300 2.532380 29.915200
H 15.192600 1.370040 30.188100
H 15.062500 2.005460 30.989400
H 15.055100 1.972570 30.974300
H 15.176800 1.407340 30.196100
H 15.410100 1.075600 31.110200
H 15.405100 1.045640 31.109900
H 14.714900 2.935320 30.868600
H 14.705100 2.899500 30.838700
H 15.181600 2.271840 32.696800
H 15.130000 2.250700 32.682300
H 15.295900 1.673720 31.903500
H 15.267600 1.648170 31.896100
H 15.547700 1.383180 33.081700
H 15.491600 1.366800 33.082100
H 15.643500 0.743855 32.024300
H 14.876800 2.839960 31.886700
H 14.842100 2.811710 31.861200
H 14.253800 10.557200 5.590990
H 14.298900 10.535100 5.587890
H 15.158400 10.260800 5.183970
H 16.240300 10.314000 5.160360
H 15.209100 10.230100 5.200020
H 16.349000 11.234300 5.980830
H 16.388400 11.223100 5.989540
H 16.189000 10.345000 5.132550
H 15.393500 10.971000 5.847550
H 15.434900 10.955900 5.849780
H 14.707200 11.414600 6.359790
H 13.753700 11.147500 6.220030
H 14.673100 11.418100 6.377850
H 13.717500 11.154900 6.244570
H 13.693300 11.893600 6.969570
H 13.719400 11.903000 6.927070
H 15.081100 13.049700 7.838720
H 15.068200 13.017700 7.889700
H 14.205200 12.599200 7.519550
H 14.187700 12.575400 7.571730
H 14.908100 12.128400 7.041430
H 14.932900 12.140500 7.009550
H 15.886400 12.407700 7.149300
H 16.112200 13.133600 7.799060
H 16.098800 13.101800 7.838290
H 15.863700 12.391600 7.174710
H 16.614200 11.949000 6.639300
H 16.584100 11.944500 6.644400
H 15.660700 11.681800 6.499540
H 15.628600 11.681300 6.511130
H 15.638700 32.411100 29.523700
H 15.680200 32.372300 29.537500
H 15.318600 33.256200 29.137600
H 16.105100 31.723500 31.381100
H 16.105400 31.747600 31.351900
H 15.968100 31.811300 30.358600
H 15.757800 32.677500 31.231100
H 15.755100 32.650500 31.245500
H 15.542700 32.974900 30.323700
H 15.524400 33.009200 30.317000
H 15.943500 31.843000 30.333800
H 16.054600 32.132500 32.330800
H 15.830100 32.928600 32.953500
H 16.081000 32.150600 32.305300
H 15.876900 32.943900 32.938400
H 15.617600 33.253000 32.031700
H 18.291400 4.104640 6.827860
H 18.269000 4.066990 6.851910
H 17.621000 3.903450 7.590750
H 17.616600 3.850470 7.626160
H 18.822700 4.196440 7.670150
H 19.280500 4.320540 7.521680
H 19.211000 4.344910 6.524350
H 19.246500 4.355020 6.516360
H 19.792100 4.437870 7.626070
H 20.230300 4.587500 6.739700
H 20.190200 4.609770 6.731260
H 20.944300 4.790600 7.417190
H 20.979400 4.739800 7.438050
H 18.483300 4.073320 8.072590
H 18.384400 4.046800 8.556520
H 18.552800 4.048940 9.069910
H 17.728400 3.836670 9.586840
H 17.755700 3.801720 9.620820
H 17.415000 3.805370 8.600600
H 17.428700 3.753380 8.639660
H 18.915700 4.138600 9.398810
H 19.350000 4.296160 8.519010
H 19.353900 4.288230 8.512440
H 19.419500 4.271790 9.516330
H 20.147200 4.543380 7.968100
H 19.885100 4.380030 9.354730
H 20.323400 4.529670 8.468360
H 20.216700 4.519010 8.965430
H 21.086700 4.673020 9.434140
H 21.083400 4.741850 9.411850
H 21.271200 4.838940 8.398360
H 21.292800 4.771100 8.424280
H 18.509800 3.982550 10.306800
H 18.477400 3.988960 10.285200
H 19.461300 4.221450 10.508500
H 19.489000 4.247410 10.513700
H 20.416400 4.471830 10.197000
H 20.431000 4.525340 10.186100
H 21.767600 5.574170 16.083500
H 21.730700 5.587110 16.106600
H 21.778200 4.577310 16.362900
H 21.769300 4.592740 16.392300
H 21.560500 3.837330 17.053500
H 21.172800 3.552490 17.970300
H 21.190500 3.561120 18.005000
H 21.571600 3.851180 17.087200
H 20.500100 6.015310 18.665000
H 21.049500 4.544240 17.934000
H 21.229400 4.693700 17.503300
H 20.926100 5.535980 17.897600
H 20.887300 5.536220 17.919400
H 21.352200 5.056650 17.130300
H 20.807700 4.668260 18.409700
475
Atoms. Timestep: 50000
H 31.769600 4.280690 5.634900
H 31.863300 4.287870 5.669820
H 30.256300 5.415340 5.286650
H 30.900800 4.641810 5.528040
H 31.172200 5.811570 5.221460
H 30.220500 5.484060 5.244500
H 31.456900 5.436440 5.314760
H 30.826000 4.679570 5.485430
H 32.891600 5.644050 5.347850
H 32.886100 4.448380 5.673990
H 31.975700 5.247830 5.413040
H 32.798500 4.394290 5.652860
H 32.443200 5.293800 5.398470
H 33.074200 6.050680 5.227810
H 30.102800 6.401220 5.010320
H 30.481200 7.335260 4.773100
H 30.538800 7.396700 4.753690
H 31.284600 6.771520 4.964680
H 30.115300 6.478600 4.976660
H 31.101600 6.335960 5.060380
H 32.087900 6.193320 5.144090
H 31.732600 7.092830 4.889710
H 33.004000 6.604010 5.091080
H 32.200500 7.167750 4.899490
H 32.718800 6.950190 4.973420
H 32.088100 6.207790 5.156270
H 31.290100 7.967200 4.638540
H 31.377300 7.992350 4.635320
H 32.406200 8.105950 4.653280
H 32.312900 8.127710 4.642710
H 33.226300 6.401420 31.784300
H 33.251300 6.329010 31.829400
H 29.948300 15.789600 29.246100
H 29.895800 15.786700 29.235400
H 30.519400 16.566300 28.961000
H 30.583200 16.560300 28.972700
H 29.485600 15.182300 29.969100
H 29.398800 14.915000 30.965600
H 29.414300 14.943900 30.978200
H 29.520400 15.197900 29.980100
H 30.045500 15.677800 30.957600
H 30.067700 15.701000 30.971800
H 30.988100 16.880900 30.099400
H 30.334700 16.123800 30.105800
H 30.940700 16.876400 30.084500
H 30.294000 16.113600 30.092500
H 30.692200 16.440500 30.949600
H 30.721100 16.458100 30.965400
H 29.658400 15.095700 31.972800
H 29.658400 15.056500 31.957700
H 30.443600 16.004700 31.814700
H 31.107500 16.792300 31.825100
H 30.195100 15.568900 32.679800
H 30.454100 16.035300 31.831500
H 30.859100 16.355800 32.958100
H 30.865000 16.314800 32.938300
H 31.090300 16.767500 31.806700
H 30.187200 15.612400 32.697600
H 31.255000 17.303700 29.233300
H 31.189200 17.312200 29.219400
H 31.374500 17.215100 30.959100
H 31.338900 17.203300 30.941700
H 31.725900 17.824600 29.941500
H 31.783800 17.820500 29.958000
H 31.985600 17.966100 30.933700
H 32.027900 17.972200 30.952700
H 31.493900 17.126600 32.684800
H 31.488500 17.094400 32.663900
H 31.921800 17.718200 31.950700
H 31.898700 17.698800 31.930100
H 27.079600 27.669900 9.121470
H 26.307800 27.419800 9.764620
H 26.237900 27.367000 9.768820
H 26.991800 27.622600 9.106910
H 25.945000 27.303400 10.727300
H 25.897300 27.255300 10.740100
H 27.009100 27.635400 10.346100
H 26.920800 27.610500 11.341900
H 27.071000 27.669100 10.360800
H 26.961300 27.635100 11.354200
H 26.061200 27.317300 11.760500
H 26.088400 27.351700 11.751500
H 26.699600 27.551900 12.562800
H 26.685800 27.536400 12.556500
H 27.834200 27.918400 10.957000
H 27.780400 27.903800 10.923400
H 27.603700 27.854000 12.915000
H 27.724500 27.884400 11.950400
H 27.692000 27.878900 11.919200
H 27.614800 27.850300 12.943800
H 27.957100 27.953600 8.931720
H 28.968900 28.285000 9.351200
H 28.875000 28.271200 9.290190
H 28.053600 27.986600 8.970150
H 27.943900 27.952500 9.963580
H 29.499500 28.490400 10.086300
H 29.580100 28.485200 10.162500
H 28.707100 28.201800 10.559800
H 28.640000 28.197100 10.504800
H 28.551600 28.172200 11.500600
H 28.597400 28.167700 11.553200
H 27.868700 27.928700 9.927540
H 29.723500 28.533500 11.186700
H 29.663500 28.552400 11.106600
H 28.588800 28.167000 12.792500
H 29.360600 28.417000 12.149400
H 28.568900 28.185000 12.739800
H 29.322900 28.440600 12.077900
H 17.116100 10.764400 5.479540
H 17.563800 11.469100 6.052690
H 17.602000 11.460700 6.072020
H 17.069500 10.787200 5.450520
H 17.567700 12.216200 6.779060
H 17.539600 12.207800 6.777690
H 17.003400 12.805400 7.431260
H 17.022400 12.828600 7.411200
H 20.465500 5.510780 18.825800
H 21.531500 6.560800 16.290300
H 21.466000 6.567850 16.306600
H 21.046300 7.272160 16.938800
H 21.133200 7.272830 16.927700
H 20.202900 7.221270 18.751600
H 20.584000 7.511330 17.833700
H 20.545100 6.378750 18.335500
H 20.291800 7.234640 18.741800
H 20.679500 7.519470 17.825000
H 20.802800 6.527720 17.861300
H 20.966800 6.404190 17.429100
H 20.074100 6.494650 19.432300
H 20.005200 6.479700 19.446500
H 21.190500 3.561120 18.005000
H 21.571600 3.851180 17.087200
H 20.500100 6.015310 18.665000
H 21.049500 4.544240 17.934000
H 21.229400 4.693700 17.503300
H 20.926100 5.535980 17.897600
H 20.887300 5.536220 17.919400
H 21.352200 5.056650 17.130300
H 20.807700 4.668260 18.409700
H 18.463300 16.686500 1.976700
H 18.527900 16.634800 1.967890
H 20.155600 16.798200 2.328650
H 19.304900 16.149000 1.703490
H 19.383000 16.107600 1.717510
H 20.328200 15.999400 1.752240
H 20.407200 15.974100 1.789120
H 20.210500 16.775400 2.354170
H 21.326000 16.270000 2.163540
H 21.259000 16.277900 2.109880
H 21.847900 16.909800 2.680590
H 21.893200 16.916100 2.740450
H 18.028900 17.468000 2.498660
H 18.070900 17.414300 2.473180
H 19.270800 17.105700 2.443550
H 19.223200 17.141700 2.440880
H 18.118200 18.284100 3.129510
H 18.134500 18.237400 3.097980
H 19.983100 17.597000 2.905050
H 20.013800 17.576700 2.919210
H 19.050600 17.940500 3.017280
H 19.074200 17.907100 3.008600
H 19.817100 18.378100 3.484260
H 19.810500 18.395700 3.481460
H 20.915500 17.253400 2.792820
H 20.953500 17.246400 2.829830
H 21.937200 17.725900 3.311450
H 21.956800 17.739100 3.365250
H 20.742900 18.052200 3.369230
H 20.756800 18.047700 3.394870
H 21.502800 18.507400 3.833410
H 21.499800 18.518700 3.870540
H 18.701700 18.883500 3.674880
H 18.707100 18.916000 3.700230
H 19.620400 19.179400 4.049300
H 19.637900 19.194500 4.057870
H 20.644600 19.045900 4.120920
H 20.661200 19.045000 4.106620
H 18.458400 19.909600 27.815300
H 20.375400 20.463200 27.678200
H 19.345600 20.396100 27.595900
H 17.961000 18.277300 28.858500
H 18.484100 17.568800 29.403000
H 19.629300 18.014700 29.243200
H 20.587900 18.291600 29.174700
H 18.919500 18.554100 28.790000
H 21.297700 17.752200 29.627800
H 21.804500 18.527800 29.165700
H 17.951600 19.134000 28.277400
H 19.878000 18.830900 28.721500
H 19.168200 19.370300 28.268400
H 20.126700 19.647100 28.199900
H 21.272000 20.093000 28.040100
H 20.836600 19.107700 28.653000
H 21.795100 19.384500 28.584500
H 19.380700 17.198600 29.764800
H 20.410500 17.265700 29.847100
H 21.510300 27.036700 10.662900
H 20.944700 27.638500 11.122900
H 21.032900 26.424600 11.356900
H 21.534100 26.986300 10.646100
H 21.033200 26.473000 11.388600
H 20.915800 27.682000 11.142700
H 19.668800 26.817700 12.765800
H 19.685800 26.854300 12.816700
H 19.171400 27.667300 13.086400
H 19.176500 27.697000 13.136500
H 20.365400 26.406200 12.176900
H 20.352800 27.326800 11.866300
H 20.343400 27.366800 11.899700
H 20.350100 26.362900 12.132700
H 20.358000 29.254500 11.333300
H 20.299200 29.288000 11.345200
H 21.668700 27.946200 10.194300
H 21.719400 27.897500 10.190900
H 20.947300 28.602300 10.856500
H 20.893700 28.642600 10.865400
H 21.539300 28.914000 10.113200
H 21.466100 28.957800 10.108400
H 20.360600 30.218400 11.066900
H 20.277100 30.248600 11.067900
H 21.041900 29.763600 10.433800
H 20.956800 29.800600 10.428100
H 19.176700 29.595100 12.553500
H 19.132300 29.618200 12.581900
H 19.726800 28.972800 12.102200
H 19.766000 28.942900 12.076600
H 18.991300 28.683800 13.008700
H 18.973900 28.708700 13.050500
H 19.748900 28.012200 12.379400
H 19.763400 27.979000 12.343100
H 20.321300 28.327400 11.622400
H 20.355400 28.290700 11.599800
H 19.677900 30.156700 11.842700
H 19.609300 30.181800 11.856200
H 23.878800 23.565400 5.695810
H 23.894900 23.577000 5.745000
H 23.874700 23.539200 5.686490
H 25.537200 22.430100 5.608450
H 25.529700 22.438500 5.624220
H 24.578400 22.800600 5.700870
H 24.557900 22.761800 5.661920
H 24.553800 22.780700 5.674220
H 25.129400 23.633700 5.650210
H 25.110300 23.593700 5.607980
H 25.115300 23.606500 5.621190
H 25.557100 22.470600 5.629600
H 26.568900 22.675500 5.550270
H 26.545000 22.630600 5.559180
H 26.550200 22.633200 5.540390
H 26.110800 23.531500 5.563670
H 26.124600 23.571100 5.574910
H 26.106500 23.529400 5.547210
H 27.325300 23.316500 5.475980
H 27.327600 23.305500 5.496560
H 27.342500 23.360300 5.484140
H 23.685600 24.582400 5.683190
H 23.670500 24.554200 5.675570
H 23.689900 24.591800 5.750150
H 24.000100 25.534600 5.632080
H 24.018100 25.573100 5.714940
H 24.025800 25.559300 5.639740
H 25.676700 24.432400 5.568150
H 25.662700 24.425500 5.554030
H 25.680300 24.466700 5.599540
H 24.666600 24.489900 5.614800
H 24.681100 24.507400 5.625670
H 24.685100 24.529300 5.674850
H 25.236100 25.362300 5.624180
H 25.219000 25.321700 5.560850
H 25.242600 25.333300 5.572630
H 27.667800 24.282400 5.453110
H 27.655000 24.296900 5.432490
H 27.670800 24.341500 5.448940
H 26.672300 24.357400 5.510630
H 26.675600 24.404100 5.524240
H 26.658900 24.361200 5.493260
H 26.231300 25.299700 5.548880
H 26.215100 25.257400 5.500090
H 26.238200 25.258300 5.515110
H 27.465800 25.356300 5.454090
H 27.474600 25.299400 5.440490
H 27.450800 25.311900 5.421570
H 25.823700 26.426300 5.512080
H 24.791800 26.257900 5.648820
H 24.808500 26.234200 5.577110
H 24.775300 26.217900 5.567680
H 25.803600 26.462800 5.569490
H 25.788200 26.421000 5.499620
H 26.799600 26.084100 5.462080
H 26.767500 26.089300 5.446140
H 26.782300 26.132800 5.498210
H 20.485600 1.029670 21.711800
H 20.411700 1.080250 22.743200
H 20.794200 0.865944 23.681100
H 21.806400 32.787200 20.424800
H 22.115000 32.623500 22.394100
H 20.996100 33.259500 20.863200
H 21.555500 32.941500 21.628600
H 22.407200 32.447200 21.454100
H 21.263400 33.117700 22.568700
H 21.822800 32.799700 23.334100
H 21.530700 32.975900 24.274200
H 22.699400 32.271000 20.514000
H 23.818300 31.634900 22.044900
H 22.966700 32.129200 22.219500
H 23.435800 31.849300 21.107000
H 23.234000 31.987400 23.925000
H 22.674500 32.305400 23.159500
H 23.744500 31.685500 23.076400
H 22.423700 32.459700 24.363400
H 22.338500 11.455100 28.977200
H 22.300900 11.463900 28.990500
H 22.354100 10.710400 29.698400
H 22.393600 10.726000 29.710200
H 22.730000 10.409900 30.636900
H 22.884100 11.465700 30.084100
H 23.318000 11.366100 30.979500
H 22.918600 11.496600 30.071700
H 23.350700 11.429300 30.971100
H 22.691300 10.361600 30.613000
H 23.835200 11.221900 32.092800
H 23.804300 11.118700 32.092300
H 23.257700 10.591400 31.509000
H 23.222100 10.511100 31.489300
H 23.052200 13.312400 28.773400
H 23.023600 13.323400 28.847200
H 23.011600 12.334500 29.533700
H 22.980000 12.320700 29.574300
H 22.546000 12.420400 28.678900
H 22.579600 12.401800 28.634300
H 23.605800 13.931100 29.450200
H 23.629700 13.942900 29.357200
H 23.414000 12.221100 30.469700
H 23.443700 12.267200 30.433100
H 23.943900 12.976400 30.855400
H 23.968700 13.037700 30.794500
H 23.536700 13.105000 29.895100
H 23.509900 13.076100 29.960000
H 23.875700 12.199900 31.332500
H 23.848000 12.121400 31.365200
H 24.157300 14.124400 30.229200
H 24.136600 14.080500 30.326400
H 24.493800 13.808300 31.155900
H 24.473800 13.731700 31.241100
H 24.307800 12.132500 32.231900
H 24.281900 12.021700 32.260600
H 24.548800 13.079200 31.889000
H 24.527000 12.978200 31.949000
H 23.857000 16.839000 16.916600
H 23.964700 16.686700 16.930000
H 24.704800 16.251300 16.828700
H 24.832400 16.125400 16.867800
H 25.585500 15.882400 17.228900
H 24.342300 16.953400 17.783500
H 24.872200 16.564900 17.765200
H 25.206500 16.475100 17.939600
H 25.652800 16.400600 18.368200
H 25.691800 16.589600 18.806500
H 25.721500 15.799600 17.286500
H 26.393600 15.796700 18.073900
H 26.263100 15.831200 18.010000
H 25.692700 16.840100 19.265600
H 26.556100 16.111300 18.962700
H 26.668800 16.117300 19.019100
H 26.473300 16.675700 19.868700
H 26.385800 16.647700 19.831700
H 23.155300 17.891600 18.306000
H 23.099000 18.024400 18.338000
H 23.963300 17.546200 18.494200
H 24.131400 17.168800 18.059500
H 23.350800 17.333200 17.456400
H 23.269200 17.488000 17.469000
H 24.827500 17.067900 18.650400
H 24.912100 17.004500 18.662500
H 24.171300 17.608400 18.956900
H 23.430500 18.212300 19.251200
H 23.392000 18.304500 19.290700
H 24.069600 18.253300 20.071800
H 24.102700 18.209300 20.038600
H 25.859400 17.322200 20.395100
H 25.312800 17.182300 19.517300
H 24.448600 17.660600 19.361100
H 24.951900 17.444000 19.559900
H 24.991700 17.883500 20.457300
H 24.950300 17.884400 20.472100
H 25.798100 17.296700 20.384200
H 24.471000 20.458700 16.828700
H 25.461300 20.474200 16.527000
H 25.428600 20.429500 16.618000
H 24.438000 20.450500 16.918400
H 25.683400 21.685300 16.668000
H 25.030600 22.372300 16.987400
H 25.681100 21.639200 16.713000
H 24.750800 21.415500 16.908000
H 24.741800 21.402300 16.961600
H 26.336200 20.998300 16.348700
H 26.863900 21.802100 16.380800
H 26.316500 20.924200 16.421200
H 26.861200 21.890600 16.341500
H 23.165400 21.832700 17.467300
H 23.167100 21.880300 17.502100
H 24.106400 22.117200 17.253500
H 24.098000 22.102500 17.227300
H 23.610300 20.981500 17.242000
H 23.630700 20.956000 17.172900
H 25.045600 22.354100 17.004800
H 25.963200 22.642100 16.747400
H 25.984800 22.591000 16.756200
H 26.895800 22.911900 16.507400
H 26.480900 23.726700 16.767600
H 26.430500 23.788700 16.801900
H 26.924100 22.827900 16.507600
H 23.227300 22.906100 17.628900
H 23.200000 22.854100 17.633200
H 23.774700 23.784000 17.588500
H 23.725000 23.746400 17.626000
H 24.377800 23.059400 17.306700
H 24.410100 23.069000 17.296700
H 25.310400 23.329200 17.066700
H 25.349400 23.305900 17.048000
H 25.590200 24.286000 17.146000
H 24.599900 24.270500 17.447700
H 24.662600 24.278700 17.391700
H 25.653200 24.257700 17.091200
H 22.848000 27.572300 26.254200
H 23.621000 26.884800 26.214000
H 24.514100 27.573400 26.727900
H 24.608100 26.633600 26.399400
H 25.544800 26.886100 26.760900
H 26.180200 27.574600 27.201600
H 22.496200 28.512000 26.509400
H 23.634000 28.042800 26.655300
H 23.540000 28.982700 26.983700
H 22.660000 29.452100 26.911100
H 25.300100 28.043900 27.129000
H 25.206100 28.983800 27.457400
H 24.326000 29.453200 27.384800
H 24.420100 28.513300 27.056400
H 26.343900 28.514600 27.603300
H 23.295300 30.140600 27.351800
H 24.232000 30.393100 27.713300
H 25.992100 29.454300 27.858500
H 25.219100 30.141900 27.898800
H 30.365300 24.592300 28.254600
H 31.341900 24.360500 28.000700
H 29.690600 25.080600 28.869500
H 30.928500 25.070900 28.928300
H 30.495000 25.622000 29.641400
H 31.925100 24.998400 28.888900
H 33.143000 24.829400 28.733200
H 32.358600 24.447300 28.175900
H 31.491700 25.549500 29.602000
H 32.488300 25.476900 29.562700
H 29.498400 25.694500 29.680800
H 32.054800 26.028000 30.275800
H 29.840300 26.269500 30.470900
H 31.058200 26.100500 30.315100
H 30.624700 26.651600 31.028200
H 32.618000 26.506600 30.949500