9000
Atoms. Timestep: 0
N 1.636070 0.747847 1.911670
N 4.126930 0.594340 1.231650
N 6.012890 2.151280 1.199350
N 5.696200 4.900210 0.685110
N 3.499010 1.199150 4.373190
N 3.842760 1.296400 5.282400
N 4.861580 0.668991 4.962680
N 4.802050 2.362800 5.521360
N 4.565220 1.714290 4.757290
N 3.952490 3.115970 5.918090
N 3.073560 2.348990 7.198420
N 4.631600 1.401880 6.838690
N 5.054960 2.236900 7.129790
N 3.367910 3.154340 6.715770
N 4.082750 3.368850 7.489530
N 4.138540 2.435130 7.396850
N 4.816690 2.940390 6.294190
N 3.251690 2.169860 8.141550
N 3.198480 3.169060 7.929850
N 0.849561 0.891736 33.299600
N 5.920430 4.213830 32.888100
N 2.078510 26.783400 2.018210
N 2.957740 27.119800 2.108170
N 1.390440 27.880100 3.206270
N 2.103680 27.451300 2.694550
N 3.066140 27.725300 2.833690
N 3.271410 28.742900 2.212110
N 2.577490 31.347200 2.304420
N 4.556160 31.024600 1.688490
N 5.409750 31.203800 1.190680
N 1.444760 33.072700 0.992308
N 2.115540 32.802100 1.597350
N 3.276040 33.344600 1.594540
N 3.089500 32.454100 1.901060
N 3.930960 32.524400 1.375650
N 4.569500 32.653900 0.656126
N 4.565880 31.778500 1.124550
N 5.375550 33.368800 0.766745
N 1.948780 29.574200 3.099060
N 1.375360 28.798100 3.056110
N 3.979000 29.272900 2.580090
N 3.643890 28.412000 2.979330
N 4.419680 28.926700 3.332110
N 5.072380 29.533900 3.847690
N 0.684820 31.593500 2.846330
N 1.042940 29.874300 3.092870
N 1.246960 30.842800 2.626820
N 2.161540 30.404800 2.673520
N 1.640230 30.515000 3.481950
N 3.359100 30.680400 3.978670
N 4.732710 29.843900 3.006610
N 5.350230 30.350200 3.421900
N 1.341380 32.767800 2.416180
N 2.368580 32.224000 2.471490
N 1.253600 32.232900 3.202890
N 3.715600 33.288800 3.310490
N 3.255960 31.817800 2.631780
N 3.013170 32.779700 2.881910
N 3.897700 32.357300 3.148250
N 1.953180 31.180100 4.941140
N 2.538030 31.095300 5.689390
N 3.164720 31.535100 4.478720
N 2.825770 30.718500 4.816770
N 5.751490 29.773100 4.530640
N 1.878750 31.888300 5.677760
N 1.350240 31.949100 4.876780
N 3.041900 32.095300 5.255640
N 4.151470 33.327600 4.377130
N 5.343550 33.019400 5.681080
N 2.421190 31.919000 6.481920
N 3.518960 32.637100 6.851100
N 3.580830 32.076300 6.090190
N 4.456170 32.597900 6.608390
N 5.064580 33.382500 6.634460
N 5.385630 30.961300 33.033600
N 5.481570 30.915100 32.045700
N 1.177890 32.967300 32.879900
N 5.501610 32.775600 32.877000
N 5.294280 31.823600 32.048600
N 5.762580 31.900800 32.843600
N 6.272260 1.403460 0.674890
N 6.132240 3.116230 0.619882
N 6.511100 5.068540 1.095240
N 6.687900 2.337070 33.416400
N 6.649980 3.588360 32.783500
N 6.211400 31.294500 0.710633
N 6.067870 29.748600 3.608480
N 7.494510 29.336100 4.489610
N 6.517800 29.181700 4.431190
N 6.252240 33.280100 33.229600
C 2.545040 0.660393 0.740987
C 2.538680 1.418930 1.341260
C 3.336340 1.449570 0.778388
C 4.275490 1.740860 0.760371
C 5.746480 1.835020 16.156800
C 4.978070 1.554080 16.621600
C 5.716330 2.196210 17.274700
C 5.801000 1.756410 18.194000
C 5.881910 0.721302 18.613800
C 4.924730 1.719960 17.542900
C 4.513760 1.032800 20.170900
C 5.020310 0.782440 19.403900
C 2.018450 1.039290 21.771900
C 3.704580 1.914090 22.027100
C 2.816910 1.424870 22.115600
C 4.186260 1.223580 21.540000
C 5.999450 1.940640 24.035500
C 5.733700 2.892700 23.877000
C 5.447620 1.646240 24.766100
C 5.397630 1.598780 25.775000
C 5.428630 18.520400 0.899491
C 4.344530 18.382100 0.881738
C 4.124810 19.416100 1.323610
C 5.212610 19.394000 1.108180
C 5.197320 20.307400 1.416240
C 4.974180 21.129100 0.936215
C 5.408200 21.784200 4.079170
C 5.979380 20.241800 4.921520
C 5.538380 21.007700 4.620070
C 5.173360 22.095200 5.191280
C 4.584480 21.730800 4.551450
C 5.796740 20.756800 5.726080
C 5.751390 21.353400 6.829680
C 4.574520 20.079200 15.939500
C 4.283870 20.572900 16.775900
C 4.020300 20.844300 15.798300
C 3.313780 20.947300 16.456100
C 3.295540 19.976900 18.629500
C 2.477360 20.487800 18.517400
C 2.216550 22.268200 17.445600
C 2.011810 20.970600 17.806700
C 2.256030 21.774300 18.265600
C 3.079430 21.910000 17.382500
C 4.277280 21.964600 17.749100
C 4.647560 21.249500 17.275900
C 6.053030 21.765700 17.218300
C 2.248600 20.076700 20.443800
C 2.742400 19.238700 20.381100
C 4.228510 20.345400 19.009800
C 5.110650 19.939600 19.912300
C 4.454580 18.963400 20.280400
C 4.321810 20.402500 20.297300
C 5.432890 18.958600 20.323200
C 2.144940 22.193800 19.281900
C 4.188790 22.349000 19.712200
C 3.436550 21.779200 19.433600
C 2.676130 21.958300 19.996500
C 5.794880 21.767800 19.045800
C 4.922120 20.795300 19.556400
C 3.035260 20.131900 20.997900
C 2.603000 19.666100 21.718700
C 3.453420 19.363300 21.992100
C 3.675840 19.201500 20.744500
C 5.937940 19.581500 20.875800
C 4.967560 19.977200 20.923400
C 4.581340 19.922700 22.355200
C 2.679560 20.064000 23.283700
C 2.472900 20.641100 24.000200
C 3.634450 20.057100 22.653500
C 4.244440 19.822200 23.435700
C 4.358600 19.104000 22.778700
C 3.317240 20.809300 23.346400
C 4.255130 20.822500 23.346600
C 1.842710 20.458000 24.726200
C 2.403880 20.454100 26.013300
C 1.252970 22.241900 25.361600
C 1.687590 20.964400 25.627200
C 2.783580 21.387800 24.988800
C 2.838360 21.257500 26.006000
C 1.166550 20.923200 26.622000
C 1.567380 21.296200 27.408300
C 0.638073 21.610700 26.222200
C 3.155360 21.984200 27.558200
C 3.947000 21.482400 27.633000
C 2.030990 21.576000 29.162900
C 2.089670 21.356300 28.218700
C 3.824370 20.887200 28.455100
C 3.581940 22.138000 29.497200
C 3.214790 21.335000 29.054600
C 3.848870 22.285500 28.417600
C 2.849080 22.147600 28.412300
C 2.467060 22.428200 29.341900
C 4.558790 22.334300 29.187800
C 2.212040 22.439600 30.263700
C 4.769780 18.450600 32.825000
C 6.015920 18.741000 32.966700
C 4.020020 19.166900 33.219100
C 5.211030 19.252100 32.837500
C 6.018860 19.789900 33.173600
C 4.188980 22.109600 32.332400
C 5.252550 20.938800 32.676600
C 4.508940 21.680100 33.112300
C 5.754820 21.679000 33.101600
C 5.638800 22.596000 0.695982
C 6.012740 24.322900 2.117740
C 5.643170 24.055500 2.971220
C 5.211390 23.904200 4.159920
C 5.774400 25.633600 3.878340
C 4.445120 24.604200 4.119310
C 5.280630 24.797400 3.619910
C 5.574240 24.142800 5.121050
C 4.640000 23.914800 4.953940
C 5.178090 24.883900 4.690050
C 5.589000 24.426000 9.729240
C 3.504830 25.156100 15.068500
C 4.225630 25.460600 14.522000
C 5.996380 24.514400 13.915400
C 4.248360 24.472600 14.406900
C 5.394620 25.182400 14.329800
C 5.094930 24.495000 14.941400
C 3.464770 22.616600 16.852400
C 3.258600 23.737300 16.130800
C 3.921280 24.229200 15.628900
C 5.186720 23.987500 16.966800
C 2.609850 24.371000 16.242400
C 3.406630 24.897600 16.058100
C 3.799850 25.508300 16.991100
C 5.431320 25.942300 16.151900
C 4.728380 25.493900 16.885700
C 4.876150 24.484600 16.195300
C 5.612200 25.040900 16.381500
C 2.310580 23.231200 17.721900
C 2.332300 22.922800 18.679600
C 3.005200 23.704800 18.294100
C 4.021600 23.568700 18.134000
C 3.445840 23.419400 17.378100
C 5.104140 23.739700 17.923300
C 5.450290 22.783400 18.010000
C 4.613270 22.520200 18.523200
C 3.633990 24.404600 18.520700
C 3.732420 24.563000 17.207500
C 2.810670 24.322600 17.180500
C 5.814190 24.786500 18.780400
C 5.509980 26.705400 17.723900
C 4.037030 23.056500 19.068600
C 5.341390 25.700100 19.291500
C 5.348050 24.734500 19.944700
C 5.572750 26.572600 19.691600
C 5.212910 27.538200 19.999300
C 5.842330 27.728100 19.259000
C 1.664700 23.743800 21.709800
C 5.723050 23.522100 21.066700
C 5.153690 24.130100 20.655300
C 4.455100 24.276000 21.774000
C 5.395120 24.162200 21.717500
C 2.243290 24.450000 21.846300
C 4.216950 25.187500 21.525800
C 4.811890 25.997800 20.998500
C 5.098500 25.114300 21.213100
C 1.117380 26.620900 21.959700
C 1.817620 27.254600 21.911100
C 3.557670 26.391300 22.434600
C 4.201640 26.243000 21.717300
C 2.985880 27.151200 22.189100
C 5.330220 27.050200 20.889800
C 5.498780 26.808900 21.807700
C 2.414690 23.723400 23.914700
C 2.266170 24.824600 22.697800
C 2.121870 24.611800 23.617800
C 5.751500 25.799400 23.188400
C 2.327090 27.817800 22.481000
C 5.416350 26.646800 23.560900
C 5.392890 27.598900 22.843400
C 5.823280 27.552900 23.918300
C 1.058800 23.157300 25.543300
C 1.893770 23.285100 24.596400
C 1.416540 24.288700 25.659600
C 2.267000 23.239500 25.426700
C 2.858680 23.711700 24.874300
C 6.051450 24.204000 24.567200
C 0.806612 24.972700 26.043200
C 2.942000 25.582900 25.245500
C 2.464820 24.381900 25.810800
C 3.328060 24.759200 25.875700
C 3.545300 24.418200 24.982400
C 1.574800 27.793900 25.648500
C 0.798837 26.308600 25.440400
C 2.333550 26.526800 25.258400
C 2.335780 26.508700 24.314800
C 1.564700 26.158400 24.876500
C 3.183180 26.232300 24.648300
C 3.131020 26.227400 25.904600
C 0.860782 23.812500 26.257800
C 0.667196 23.566300 27.686000
C 2.157310 23.783000 26.456400
C 1.378620 23.986400 27.129700
C 2.329440 23.894800 27.383200
C 0.922497 25.617700 26.749800
C 0.648907 24.619400 27.019500
C 0.772600 26.513800 26.427900
C 2.151460 27.852700 27.890100
C 0.954390 26.153800 27.874300
C 1.898740 27.092900 26.223100
C 2.356510 27.445700 27.024200
C 2.895610 27.181900 26.134800
C 3.219600 27.443200 27.463900
C 4.489770 27.708200 27.050700
C 4.341560 26.966600 27.632000
C 1.100550 23.356700 28.784700
C 1.677470 23.153300 29.590400
C 0.957965 22.485300 29.433500
C 4.867190 23.741000 29.459100
C 5.291730 22.916400 29.177700
C 5.762760 23.916900 29.753100
C 1.247950 24.958500 28.808200
C 2.278330 25.973300 29.177200
C 0.653268 25.741800 28.664600
C 4.602920 25.665700 29.495100
C 4.978710 25.345200 28.627800
C 5.662170 24.492700 29.005600
C 5.115740 24.872300 29.686800
C 6.013250 25.616000 28.993400
C 1.540180 26.796800 28.304600
C 0.966449 27.522600 28.054200
C 2.448970 27.324800 28.673300
C 2.971920 26.630100 28.893900
C 3.829460 27.380100 28.373100
C 3.797020 27.448700 29.326500
C 5.238440 26.217600 28.985200
C 5.763930 26.473600 28.069700
C 1.388490 22.798400 30.496600
C 4.153070 22.913800 29.786400
C 2.800550 25.978500 29.950000
C 5.662910 25.850400 30.408800
C 4.203070 27.517600 30.179400
C 3.116690 27.620800 30.991200
C 3.867080 27.024000 30.881900
C 5.552050 26.170800 31.347300
C 4.060590 23.545500 32.194500
C 4.760380 23.058900 32.563500
C 4.610360 22.677100 31.694600
C 4.242370 24.456200 32.260900
C 5.132490 24.709800 32.009200
C 5.255090 25.687000 32.166900
C 5.315500 27.764600 31.862300
C 1.431380 32.055400 1.046980
C 0.594315 32.431300 0.664755
C 5.728870 29.961600 2.598170
C 5.239410 29.393400 16.757700
C 5.709410 30.520200 15.784200
C 5.457670 30.789600 16.622400
C 3.742020 29.070300 17.865700
C 4.387760 29.473400 17.261700
C 4.297980 28.632300 18.479100
C 5.864760 30.910600 18.646600
C 5.292170 31.087200 17.536200
C 5.358380 30.110700 17.501300
C 4.492910 30.009100 18.248500
C 5.810410 32.116100 18.723100
C 1.810080 28.676400 20.049100
C 2.630810 29.122000 19.568700
C 3.572350 28.973000 20.127900
C 2.653600 28.660700 20.437000
C 4.270810 29.139400 19.272200
C 4.443780 29.409900 20.150500
C 2.730150 30.033900 19.252200
C 3.705530 30.213200 18.831100
C 3.680870 29.932000 19.756500
C 3.651910 30.962100 20.230400
C 5.100540 30.251400 19.032500
C 4.663690 30.398500 19.829900
C 6.033390 30.898700 19.650400
C 4.409880 31.659400 20.216800
C 5.184250 31.688800 19.723100
C 4.900060 32.969600 20.256100
C 6.025140 32.136700 19.835100
C 5.648490 32.885300 19.409700
C 3.927160 29.326300 21.745900
C 3.799560 29.633800 20.851400
C 4.737090 28.712800 22.019400
C 5.171470 27.971900 20.838900
C 2.810860 30.953900 20.663900
C 4.338490 30.437100 20.711400
C 4.806650 31.426800 21.113100
C 1.990730 31.849000 21.769500
C 3.754470 32.417900 21.829700
C 2.432300 32.637000 22.131600
C 2.867910 31.600900 21.716000
C 3.401260 31.673100 20.953600
C 3.285640 33.315600 21.815800
C 2.995290 32.681100 21.204500
C 5.115820 32.303400 20.881600
C 4.803030 32.143200 22.147900
C 5.299800 33.235700 22.166600
C 4.286550 32.924700 22.412800
C 4.687840 33.257000 21.409000
C 5.743740 33.362700 20.691800
C 4.646430 28.154900 22.802200
C 2.199700 33.391100 22.656400
C 5.620800 31.931000 22.656400
C 3.843300 29.478500 25.712300
C 5.853210 28.054000 24.745700
C 4.482390 28.794700 25.786200
C 3.754780 28.226700 27.688400
C 2.979560 28.765900 27.525600
C 2.423670 28.098800 26.318800
C 4.221950 28.586500 26.718300
C 3.277820 27.973300 26.655900
C 5.261530 29.726900 26.937400
C 5.889350 30.301200 27.780200
C 5.895970 30.820400 26.782300
C 4.988450 29.884500 27.855000
C 4.462280 29.793200 26.421300
C 1.571220 29.017500 28.733200
C 1.925860 28.684200 29.536500
C 2.456650 28.909100 28.337800
C 1.711850 29.226200 30.307600
C 0.587780 28.906400 30.999900
C 1.270300 29.615000 30.993700
C 5.225900 28.324100 31.049500
C 3.512040 28.348200 31.861000
C 2.626550 27.982500 31.774600
C 4.216300 29.373800 32.177400
C 3.733420 28.395800 32.808400
C 4.795220 28.604200 32.061300
C 4.607680 28.833600 33.134900
C 0.828772 30.049200 32.503700
C 0.814959 31.496300 33.280400
C 1.265400 30.687600 33.032000
C 2.869690 30.410700 32.238600
C 3.792150 30.272900 32.221600
C 3.111090 30.627100 33.133800
C 1.968070 32.361400 33.179000
C 2.360650 33.100300 32.700500
C 7.860160 2.125830 0.771788
C 9.772620 2.267750 1.254830
C 8.138850 2.759080 1.420890
C 9.008050 2.805220 0.986701
C 10.823600 2.879050 1.470580
C 10.188800 2.828090 0.646245
C 10.910800 3.472660 0.753027
C 9.749970 5.545070 1.686640
C 10.536200 5.193730 2.094470
C 9.918430 5.585890 0.767219
C 7.655110 0.689793 2.617550
C 8.001700 1.489850 2.975950
C 8.631370 2.173530 3.159030
C 9.005720 1.206490 2.979390
C 8.578870 1.492400 3.918550
C 9.336450 0.947258 3.813190
C 11.382900 0.949932 3.172640
C 8.155470 2.678400 3.849020
C 9.015050 3.024730 3.541200
C 9.967930 3.084140 3.442240
C 10.913200 3.431290 3.852080
C 10.691400 5.111790 3.063600
C 10.378900 4.647060 3.843750
C 7.856390 2.198720 4.770340
C 7.880590 1.726910 5.622410
C 8.166300 1.155530 4.913270
C 8.795470 2.179090 4.581080
C 11.268900 1.029730 4.916330
C 11.017300 1.631240 5.630010
C 11.158500 1.706730 4.283210
C 11.457700 3.508160 4.696950
C 11.397700 3.268810 5.665480
C 11.383200 2.569270 4.615370
C 10.577400 3.175660 5.180980
C 10.478600 4.048360 4.853550
C 9.920380 3.351570 4.390650
C 11.286600 2.323970 6.216130
C 10.960100 1.130040 7.915380
C 10.734200 1.974290 8.193340
C 6.678500 4.106290 7.990710
C 9.622950 3.937310 8.679530
C 10.847300 2.471240 9.043180
C 9.888860 3.225820 9.267780
C 10.820100 3.285710 9.551460
C 7.125650 4.623360 8.723660
C 8.785070 4.436720 8.496970
C 8.003880 4.249370 9.041570
C 6.553540 1.419930 16.425100
C 6.749530 2.017610 17.481600
C 7.562750 1.534520 17.997800
C 6.892520 2.092400 18.399300
C 6.984910 0.980676 17.143400
C 6.560120 0.996274 18.023300
C 7.736790 2.358800 17.609800
C 8.411130 1.271840 18.461700
C 6.994130 2.912950 17.362800
C 6.108000 2.292530 18.921800
C 7.427760 0.899278 21.001100
C 7.308600 1.884900 21.880600
C 6.237340 0.706313 21.508000
C 8.733540 0.675607 21.675600
C 8.036140 1.441890 21.500300
C 9.517930 1.155150 21.391800
C 10.385400 1.274350 21.776500
C 10.677300 2.010540 22.273700
C 8.239730 2.522640 22.124600
C 9.158920 2.817480 22.073300
C 7.165000 1.962810 23.916000
C 7.448800 2.182020 22.843700
C 6.102720 0.842358 22.558700
C 8.341010 1.801870 22.741500
C 10.822500 2.290570 23.387100
C 6.735210 2.791620 23.658700
C 9.096540 3.157310 23.860100
C 8.760650 2.936190 22.986100
C 10.428400 4.025430 22.627100
C 11.317100 2.644760 22.673100
C 10.492100 3.136910 23.086400
C 10.783100 4.197320 23.686900
C 11.505500 4.221980 24.288400
C 11.402800 5.121350 23.944800
C 11.333200 4.259110 22.874800
C 7.201070 2.109870 25.705700
C 6.853010 1.749060 24.794800
C 7.835370 1.643490 24.850900
C 6.170710 2.184860 25.734700
C 8.708410 2.083840 24.943000
C 9.611810 2.286620 25.146300
C 6.384350 2.670780 24.564600
C 6.994250 3.019380 25.406000
C 8.879720 3.148590 24.810400
C 9.392900 3.623930 25.466500
C 9.609730 2.823390 25.948200
C 8.122500 2.818470 26.852300
C 9.424510 3.239080 27.434700
C 8.812630 2.545760 27.453800
C 10.292600 2.799850 27.227700
C 10.954800 3.438470 26.631900
C 10.574900 3.701890 27.484100
C 10.988500 1.484270 29.538800
C 11.126900 2.364510 29.371100
C 9.857260 3.029190 28.412000
C 10.419000 2.997610 29.173800
C 9.486050 0.651131 31.454000
C 11.267800 2.022100 30.348000
C 11.104800 3.182360 31.169300
C 11.086100 4.094050 31.575000
C 10.564300 2.414900 31.222600
C 9.344120 2.308000 32.860600
C 8.196100 1.463240 32.987500
C 9.985190 1.738080 33.198100
C 10.800700 1.111440 33.307000
C 8.367830 2.451710 32.769000
C 10.105500 2.919140 31.919600
C 10.662000 3.383070 32.535000
C 8.683450 5.718820 32.031100
C 8.770640 5.483800 32.927700
C 8.998520 4.596720 32.765600
C 9.871290 5.001240 32.554500
C 10.463300 4.279060 32.541400
C 8.218080 10.792100 17.452100
C 8.766080 6.531070 32.599600
C 9.699130 6.125340 32.895600
C 9.445580 6.955710 33.183200
C 7.852930 13.160700 16.729300
C 7.957670 12.216400 16.728800
C 7.487160 14.029600 16.561600
C 8.554060 14.022400 16.606400
C 8.050400 11.710800 17.624700
C 8.149080 14.375100 17.382900
C 8.765450 13.639100 17.510900
C 9.582160 13.846300 17.059100
C 11.229500 14.635800 18.177000
C 10.827200 14.247400 17.201300
C 10.104500 14.097200 17.831300
C 11.230300 13.714000 17.908300
C 8.646170 16.126600 18.798700
C 11.161500 15.624700 18.361900
C 9.643150 15.113600 19.700900
C 7.727920 16.023600 19.032800
C 8.270330 16.829100 20.552000
C 7.973400 16.915500 19.432800
C 9.430550 15.958600 19.318400
C 8.301360 16.067300 19.864500
C 10.354500 15.861900 18.830000
C 10.595100 15.221600 19.515900
C 8.532130 16.113500 21.151200
C 8.766690 16.311300 22.080700
C 10.959700 16.622000 21.801600
C 9.895450 16.367000 22.289700
C 11.205300 13.960200 25.717100
C 9.407250 14.356700 26.690000
C 8.388240 14.469500 26.770800
C 10.028800 13.410700 26.311400
C 10.461100 14.240500 26.252700
C 9.898630 13.703300 27.179500
C 7.303740 19.538000 1.519900
C 6.776220 19.024300 2.128160
C 6.850040 19.912500 0.813830
C 9.451780 19.559200 1.156480
C 7.922560 19.177000 2.358040
C 8.254910 20.041600 2.166000
C 8.800310 20.235200 1.398370
C 9.627920 20.198700 2.210510
C 10.219700 19.431100 2.053250
C 11.094300 19.788300 1.797310
C 10.911800 21.631500 2.069750
C 10.983100 22.431900 1.556160
C 9.773220 22.362900 1.834910
C 7.234230 19.157700 2.977800
C 6.629980 20.702500 3.314450
C 6.320840 22.218100 4.147510
C 6.343390 21.310800 3.971170
C 9.689300 22.399100 3.395810
C 10.095700 21.850200 2.552990
C 9.958540 20.781600 2.847270
C 11.414200 21.874100 3.857870
C 10.772900 21.167600 3.068920
C 10.813000 21.135900 4.015450
C 10.636100 22.184000 3.436160
C 7.363150 21.441900 5.570570
C 6.968690 22.206500 4.879550
C 7.850070 20.814900 4.969630
C 6.080630 21.843900 5.039710
C 9.252280 20.598900 7.369270
C 9.716060 19.760600 7.267130
C 10.210600 20.517900 6.946770
C 11.163300 20.548200 6.912000
C 7.257040 22.119200 6.239700
C 6.134340 21.563500 7.671510
C 6.328390 21.474800 6.054630
C 8.107830 21.927700 6.600150
C 9.235630 22.235200 7.703650
C 9.091260 20.444400 9.675760
C 8.444060 20.255800 8.982970
C 6.750850 21.284000 8.342990
C 6.391680 21.085500 9.223400
C 7.009500 22.072500 9.624300
C 6.132180 21.961000 8.853850
C 9.321660 21.087100 8.203400
C 8.203700 20.959700 9.528400
C 9.165190 21.525700 8.989150
C 9.695820 22.261300 9.263720
C 9.850980 22.043100 8.362080
C 9.771180 20.629500 10.293700
C 7.295480 21.173700 9.767320
C 8.974350 20.848700 10.795800
C 8.960270 21.500100 10.093300
C 8.839040 22.439400 10.406800
C 10.602100 19.655000 13.341200
C 10.978000 20.404700 12.510600
C 7.654080 22.451600 12.005800
C 11.433300 21.588700 12.165000
C 10.025200 21.043500 12.546700
C 11.383400 20.776000 11.731100
C 10.360200 21.875400 12.199500
C 11.516700 19.963200 13.559800
C 9.996990 20.417500 13.374600
C 9.855340 21.325900 13.422600
C 10.762100 18.365900 16.447100
C 9.725470 17.038200 16.868300
C 9.977980 18.780600 16.687600
C 9.778380 17.890900 16.375200
C 10.857300 19.062600 15.781600
C 7.553670 21.672500 15.176000
C 6.793230 22.275900 15.255600
C 6.335440 22.317600 16.510800
C 8.967320 21.891600 16.542700
C 8.210910 21.689300 15.823600
C 8.934630 22.340400 15.703400
C 9.840090 22.204900 16.911700
C 11.217100 17.743700 18.422700
C 10.790300 18.603900 18.353700
C 11.173100 18.070700 17.505400
C 10.483200 17.404900 17.309000
C 9.658630 20.217100 18.795300
C 7.016500 21.630000 17.335400
C 6.912740 21.133300 18.569500
C 7.525820 22.419600 18.181100
C 6.930610 20.746200 17.685300
C 7.838270 21.033200 18.411800
C 6.220510 21.987000 18.220400
C 8.188520 21.925000 18.777600
C 9.232900 21.853100 17.853000
C 8.367060 22.310100 17.757100
C 9.730380 22.362900 18.419000
C 11.398800 21.806900 17.133700
C 7.177340 18.241200 20.406100
C 6.776410 18.486800 19.533300
C 6.227350 19.522400 19.957700
C 7.600020 20.312800 18.964300
C 7.546140 19.886000 20.000200
C 6.756270 20.141800 20.532300
C 8.141270 20.428700 20.525000
C 8.164050 19.545600 19.069800
C 8.726120 20.374000 18.952700
C 9.544100 20.068000 20.540500
C 7.321410 21.775000 19.253500
C 6.446880 21.479800 19.594200
C 6.567590 22.457600 18.988100
C 9.460670 20.678300 19.646600
C 9.158080 22.240000 19.349600
C 9.195680 21.741400 20.165900
C 9.972730 20.931700 20.393500
C 8.767020 17.100800 21.553400
C 9.561080 18.254800 22.406400
C 8.719800 17.914700 22.103200
C 9.148370 18.751700 21.713900
C 9.784420 18.226500 21.237900
C 10.821600 17.550700 21.229400
C 10.723200 18.392000 21.710200
C 10.338600 17.234400 22.148300
C 7.126590 19.162600 20.686700
C 7.833290 19.731400 21.075300
C 10.068300 20.338400 21.278100
C 9.554230 21.897200 21.035200
C 10.405600 22.226200 21.282000
C 11.303000 21.019100 22.239400
C 10.012500 21.197500 21.774900
C 7.105940 18.674800 22.812300
C 7.679480 17.375200 23.273000
C 7.854940 18.154000 22.632400
C 8.319020 17.123800 22.633100
C 9.313300 17.126400 22.551500
C 10.127600 17.094300 23.505200
C 10.521100 17.893000 23.102600
C 10.367000 17.655400 24.244600
C 10.540300 18.525900 23.994300
C 11.325900 18.544600 23.488000
C 10.631600 18.714000 22.575500
C 7.832100 19.295800 23.086400
C 9.516840 21.188100 22.752900
C 9.672410 22.324500 23.450900
C 8.911750 21.920800 23.882800
C 10.233900 20.653500 22.491600
C 11.364600 21.573800 23.032300
C 10.873700 22.411000 23.172900
C 10.376900 21.677600 22.629200
C 9.566820 21.885800 24.578100
C 9.124250 21.998400 25.474500
C 9.298170 20.708600 27.213200
C 10.212000 20.829300 27.195900
C 10.879200 22.393500 26.153800
C 10.734800 21.455800 26.226100
C 10.993200 21.462300 27.176700
C 6.201210 20.140800 31.143700
C 6.301230 19.258800 31.462000
C 6.422970 20.575100 32.777000
C 6.768290 20.364700 31.902000
C 9.447830 20.085600 32.800600
C 10.154700 19.680200 33.366100
C 10.947800 19.858100 31.624000
C 10.854100 20.618400 32.386700
C 10.044400 19.898400 31.975300
C 11.244900 20.155700 33.161200
C 6.718970 24.220700 1.535000
C 7.007400 22.631300 2.302070
C 7.287430 23.702600 2.323770
C 6.569090 23.028200 1.405150
C 7.498810 23.198000 1.503440
C 6.712000 23.545900 0.588907
C 8.013770 24.012200 1.455850
C 9.572480 24.222400 1.161370
C 9.115430 23.379300 1.269650
C 9.696670 23.925500 2.207690
C 8.877170 24.237300 1.950880
C 8.215520 23.317700 0.850203
C 11.187400 24.097500 1.067120
C 10.346200 23.718800 0.849263
C 10.301300 23.270600 1.844340
C 11.017200 23.703700 2.247400
C 11.509100 23.212900 1.352100
C 6.928640 24.675100 2.392300
C 7.814130 24.810100 2.238350
C 7.884540 25.699500 2.164000
C 9.546390 24.956300 1.877420
C 8.828730 25.484100 2.286340
C 10.361600 25.608200 1.846090
C 10.534400 24.524800 1.941020
C 7.247750 26.541100 1.851750
C 7.830640 27.293100 1.768650
C 9.190350 27.188200 1.459890
C 9.715010 27.044000 2.226070
C 11.410800 26.814500 2.377040
C 10.547800 26.761000 1.896730
C 6.575600 23.904000 3.027520
C 7.579610 23.029800 2.923390
C 7.715460 24.009700 3.138280
C 6.985560 23.435100 3.917100
C 6.197730 23.036100 2.630310
C 8.194850 23.531100 3.850650
C 9.479540 22.907600 2.618330
C 10.348600 23.247700 3.084320
C 10.329700 22.909500 4.171860
C 10.909700 22.694100 2.563540
C 6.100740 24.321900 4.145580
C 6.985900 24.372100 3.849230
C 8.370180 25.537900 3.105400
C 8.470930 24.578400 2.962580
C 9.381750 24.774100 2.846010
C 10.866900 25.877600 2.643270
C 10.165700 25.332400 3.011330
C 7.004790 26.769700 2.802670
C 7.892530 26.556200 2.788880
C 8.114880 26.775700 3.716330
C 8.992290 27.654100 3.743880
C 10.036100 26.227400 2.755430
C 7.163750 23.312300 4.845260
C 7.805400 22.857600 5.416170
C 8.100500 23.697500 5.757250
C 9.033000 23.819400 6.023640
C 8.056380 23.967200 4.712440
C 8.862300 23.339600 5.098710
C 8.940740 23.957300 4.382430
C 9.926280 23.732100 4.513970
C 9.810400 23.736200 5.444210
C 11.093700 22.481700 4.662170
C 6.586690 25.380500 4.361550
C 7.467920 25.010300 4.554260
C 9.680200 24.737000 5.900220
C 8.218900 25.456600 4.986410
C 8.938020 25.710100 5.526840
C 9.412190 25.198800 4.720650
C 9.913250 25.988000 5.009990
C 10.131600 24.707400 5.058750
C 10.819100 25.684300 4.862220
C 11.105700 24.910000 5.499820
C 10.245000 25.511100 5.984720
C 7.373230 26.723200 4.434020
C 8.727950 27.205700 5.475570
C 8.177750 27.143300 4.662780
C 9.244130 27.340800 4.623110
C 9.150200 23.138900 7.653760
C 8.364990 22.812700 6.242280
C 8.577470 23.417600 6.945840
C 9.524230 24.348900 6.934240
C 8.283300 25.391000 6.877910
C 8.659560 25.342400 7.748800
C 9.205740 25.439400 6.559120
C 9.655870 24.744300 7.788610
C 10.317400 25.426300 6.927090
C 9.353980 26.327300 6.168080
C 10.941200 26.982900 7.543660
C 10.151200 26.382000 6.879440
C 11.006200 26.702700 6.633170
C 6.093050 22.716200 8.299600
C 6.727260 22.675500 9.002560
C 8.924110 23.032000 9.451730
C 9.124010 23.671900 8.776310
C 11.346800 23.812000 8.139910
C 9.780890 23.379200 9.616420
C 10.700900 23.086600 8.043240
C 9.857520 23.064100 8.570740
C 10.599100 23.782500 9.203120
C 8.554830 24.780300 8.552460
C 9.487330 24.656800 8.719160
C 7.309810 27.261800 8.113210
C 9.512730 26.582900 8.727740
C 8.632190 26.702900 8.383430
C 8.113150 27.458300 8.588350
C 10.083400 27.344000 8.919730
C 11.141400 27.208000 8.451050
C 7.042070 23.846300 10.623900
C 7.057180 23.723400 9.706820
C 6.155390 23.727600 10.028900
C 9.488520 23.496300 11.490400
C 7.995190 22.839700 11.224700
C 8.695500 23.907500 11.266300
C 9.770720 22.533400 10.202200
C 10.321600 22.512300 11.006000
C 10.429700 23.962100 10.124600
C 10.362000 23.564000 10.996300
C 11.425100 23.840900 10.522500
C 7.318440 24.689200 10.945600
C 11.165700 24.794600 11.417800
C 11.381100 24.434400 9.773150
C 7.717620 24.189900 12.820000
C 7.779240 24.268500 11.889600
C 7.418270 23.431600 11.741300
C 8.725870 23.981600 12.278200
C 8.335370 23.105900 12.200100
C 11.135500 22.483400 12.223900
C 7.403470 25.045800 12.614000
C 7.294990 25.362800 11.675000
C 6.776850 25.364900 13.340600
C 6.602690 24.423100 13.237800
C 9.303340 25.661500 12.138800
C 8.677490 25.947100 12.908700
C 10.158400 25.672800 12.688000
C 10.777600 25.088200 12.271000
C 8.068680 27.865000 12.386100
C 9.897600 27.533800 12.999200
C 11.004000 23.718900 14.658800
C 10.968200 23.754500 13.711400
C 7.844470 25.878600 13.379800
C 7.203270 24.997700 14.171100
C 7.972660 25.407200 14.623400
C 9.698960 25.475100 15.049300
C 8.983850 25.227100 14.458300
C 8.819020 25.989600 15.065800
C 9.878600 24.606300 14.714500
C 9.969170 25.253500 13.958300
C 10.754400 25.757500 14.180500
C 10.681500 25.296500 15.000200
C 8.487590 26.269500 13.952100
C 9.074670 26.950300 14.342700
C 8.030810 26.438200 14.914000
C 9.913330 27.367200 13.977200
C 11.226100 27.420900 13.623600
C 11.025300 26.687400 14.458800
C 10.714700 27.716600 14.368500
C 10.679000 26.229200 15.150300
C 6.147460 23.225200 16.345400
C 7.245630 23.270800 16.638000
C 6.718280 23.317700 15.594800
C 7.030910 24.080900 16.112800
C 10.102200 23.703500 16.579300
C 6.396150 25.968600 16.230900
C 7.326830 25.789600 15.260900
C 11.210900 25.879800 16.665400
C 10.769100 24.334400 16.816300
C 9.887100 24.837200 16.653600
C 6.407690 26.958700 16.220200
C 6.631210 27.638200 16.778100
C 8.627190 27.277300 15.178000
C 9.583150 26.586200 16.853100
C 11.107900 27.018400 16.334700
C 7.725650 23.164000 17.453200
C 6.616880 23.135100 18.332900
C 6.259480 22.798700 17.460200
C 10.757800 23.609400 17.588000
C 10.700900 22.698300 18.151900
C 10.015200 22.958800 17.525400
C 10.904300 22.628700 17.148300
C 11.294900 23.103100 18.773300
C 6.058000 25.731700 18.642500
C 9.535250 25.839500 17.488000
C 8.951570 25.989200 18.241000
C 10.398800 25.563300 17.076800
C 6.581520 26.342000 18.027300
C 6.344050 26.815900 17.255700
C 9.456680 26.785600 18.057200
C 10.538600 26.665500 17.030400
C 10.323400 27.363300 18.070500
C 11.373700 27.395200 18.778600
C 10.801400 23.689900 19.376700
C 11.043100 23.284800 20.165900
C 9.969310 22.835600 19.231100
C 7.013590 25.986000 18.849200
C 6.241950 24.797200 19.674200
C 6.773670 25.331600 20.328700
C 6.542380 26.075200 19.698800
C 8.781520 25.801400 19.331200
C 7.499620 26.649300 19.911600
C 6.292390 27.080900 20.140900
C 8.204430 26.584300 19.297600
C 9.404780 26.335100 19.787200
C 10.480100 27.494800 19.041100
C 11.417000 27.796100 19.753100
C 11.115100 23.227400 21.190600
C 10.227400 23.199100 21.325500
C 11.313400 23.114200 22.144500
C 9.236430 25.753600 21.055300
C 6.220570 27.258900 22.327400
C 7.193780 26.123100 20.691000
C 9.181760 27.739300 22.436800
C 9.353540 26.657200 20.663000
C 9.443600 26.812300 22.389100
C 8.131140 27.327300 22.163800
C 11.032400 27.424600 21.942500
C 11.065200 27.168100 20.808900
C 10.600000 26.646600 22.212700
C 9.747470 26.287400 21.654500
C 10.384900 27.920300 20.862500
C 7.413480 23.655500 24.075700
C 8.389450 23.703800 23.330300
C 9.220220 23.369300 22.909900
C 8.579610 24.188700 22.534100
C 9.666230 24.064700 24.218700
C 8.848550 22.524300 22.987400
C 7.766080 24.452300 22.962900
C 6.882110 24.858100 23.888700
C 6.237640 25.619500 23.996200
C 7.908110 25.232700 23.467800
C 7.907980 24.446000 24.034900
C 9.593050 25.883100 24.142200
C 10.131400 25.318600 23.559100
C 10.253200 24.367900 23.516100
C 6.871460 27.380000 23.819900
C 6.393050 26.597500 23.332000
C 7.184680 26.350000 23.894400
C 8.069560 27.790400 23.011500