1900
Atoms. Timestep: 0
H 2.207780 29.154700 2.166890
H 2.191440 29.086100 2.197130
H 2.224790 29.078500 2.234500
H 2.203180 29.097500 2.209750
H 2.198040 29.098800 2.170060
H 2.193680 29.101400 2.185290
H 2.297490 29.928300 1.558650
H 2.307350 29.901900 1.570430
H 2.310020 29.916400 1.557560
H 2.342940 29.974600 1.549410
H 2.318990 29.911200 1.580280
H 2.336530 29.886100 1.596530
H 2.802310 30.777800 1.351990
H 2.758270 30.828500 1.336670
H 2.779110 30.793500 1.337230
H 2.789220 30.803100 1.345120
H 2.783860 30.806200 1.321990
H 2.831220 30.860700 1.329580
H 2.971370 30.043200 2.304700
H 2.977120 30.056000 2.289340
H 3.246020 30.541000 2.181510
H 3.202120 30.510200 2.174340
H 3.215460 30.502900 2.198480
H 3.230060 30.488700 2.208420
H 3.566230 30.864000 2.281410
H 3.557850 30.853100 2.299490
H 3.541800 31.575400 1.566300
H 3.480310 31.521900 1.560010
H 3.488240 31.532400 1.541700
H 3.456900 31.558000 1.563590
H 3.487870 31.534100 1.567270
H 3.497320 31.514600 1.566410
H 4.223060 31.891900 2.179070
H 4.206200 31.921500 2.178620
H 4.227750 31.908300 2.187220
H 4.234410 31.900400 2.157820
H 4.235330 31.899000 2.182340
H 4.284270 31.927300 2.196140
H 2.461960 28.620600 3.016550
H 2.466010 28.579500 3.036980
H 2.486550 28.562200 3.007080
H 2.497030 28.571200 3.094970
H 2.472820 28.579900 3.064860
H 2.462430 28.564500 3.049400
H 2.922440 29.650100 2.630800
H 2.941300 29.639100 2.649680
H 2.934300 29.688000 2.600160
H 2.922000 29.645300 2.591040
H 3.054040 28.490800 3.884420
H 3.080300 28.500300 3.947370
H 3.037390 28.515400 3.870750
H 3.055110 29.387600 3.029050
H 3.048910 29.374500 3.044180
H 3.369060 29.350000 3.506110
H 3.348680 29.349900 3.484170
H 3.365840 29.327000 3.428720
H 3.349110 29.368400 3.452090
H 3.712930 29.515700 3.778450
H 3.722220 29.527200 3.760830
H 3.055660 28.497200 3.916480
H 3.085730 28.462200 3.845420
H 3.047710 28.477000 3.898870
H 4.089800 29.873500 3.849690
H 4.067940 29.902600 3.905220
H 4.075630 29.901700 3.885370
H 4.085570 29.910600 3.921290
H 3.946570 31.049300 2.623600
H 3.926080 31.056700 2.595320
H 3.972550 31.074400 2.614790
H 3.934730 31.055500 2.619530
H 3.635390 30.184400 3.038970
H 3.657820 30.199700 3.064860
H 3.645960 30.191800 3.012020
H 3.641700 30.202700 3.051850
H 3.644220 30.195600 3.021120
H 3.660830 30.221400 3.033440
H 4.221860 30.994400 3.033760
H 4.233330 31.003600 3.013190
H 4.311320 30.335200 3.752900
H 4.299400 30.325700 3.773240
H 4.374330 30.760200 3.480030
H 4.387350 30.754700 3.466720
H 4.360970 30.755400 3.472900
H 4.369920 30.738400 3.433000
H 5.090840 31.320800 3.895210
H 5.079330 31.282800 3.880810
H 5.093880 31.284900 3.853970
H 5.080230 31.308000 3.893950
H 5.094770 31.289800 3.856950
H 5.113870 31.288000 3.900000
H 4.822440 31.811700 3.005260
H 4.818600 31.828100 3.034740
H 4.805370 31.821500 3.016960
H 4.810590 31.825600 3.038840
H 4.808340 31.804300 3.028540
H 4.859690 31.822200 3.050340
H 3.835020 28.825700 4.460450
H 3.818320 28.884800 4.563300
H 3.795530 28.871400 4.536430
H 3.779860 28.867300 4.500580
H 3.800210 28.858800 4.500540
H 3.790460 28.847000 4.517930
H 4.533650 29.555200 4.687370
H 4.513330 29.621500 4.777720
H 4.490430 29.582100 4.737300
H 4.491660 29.575400 4.740710
H 4.494190 29.602400 4.758580
H 4.504580 29.585000 4.720250
H 4.964420 30.494300 4.523420
H 4.979100 30.513200 4.533180
H 4.978720 30.468100 4.517480
H 4.978430 30.474800 4.484680
H 4.994430 30.455400 4.465390
H 4.963420 30.466900 4.507500
H 5.488280 21.718100 20.146300
H 5.501390 21.688000 20.126500
H 5.474050 21.664800 20.065500
H 5.640390 21.645900 21.357300
H 4.960340 20.699100 21.784300
H 5.067110 20.994900 20.741900
H 5.072660 21.046300 20.815400
H 5.084430 21.025500 20.804100
H 5.565480 21.449200 21.781700
H 4.965410 20.695500 21.778100
H 5.692970 21.513700 22.363600
H 5.686290 21.526400 22.349100
H 4.956800 20.658600 21.714800
H 5.824100 21.952300 20.957000
H 5.638610 21.652000 21.374700
H 5.172680 20.746000 22.723500
H 5.176220 20.786400 22.787600
H 5.660370 21.273800 23.562100
H 5.656910 21.233600 23.497800
H 5.676610 21.238800 23.571900
H 5.915530 21.736700 22.673200
H 5.181390 20.769500 22.793200
H 1.430510 24.986400 27.726100
H 1.450700 25.010800 27.701200
H 1.826080 25.847200 27.220300
H 1.792210 25.830500 27.248100
H 2.444690 24.910700 27.745700
H 2.425940 24.898200 27.763100
H 3.421370 24.810100 27.800200
H 3.438680 24.810600 27.790300
H 3.005910 25.605600 27.359100
H 3.036120 25.608200 27.341300
H 4.001340 25.517500 27.396100
H 4.030100 25.508100 27.385900
H 5.426650 24.610400 27.879500
H 5.269350 25.500500 27.374800
H 5.240480 25.525200 27.376400
H 4.432660 24.710500 27.834900
H 4.416790 24.722000 27.837200
H 5.412220 24.633800 27.874200
H 3.656760 26.537200 26.804800
H 2.633550 26.405900 26.892200
H 2.590450 26.401200 26.918000
H 3.611330 26.545500 26.824300
H 4.581310 26.224900 26.992100
H 4.621530 26.205700 26.981400
H 2.261430 23.395300 28.608200
H 2.255820 23.415400 28.599300
H 1.608000 24.120600 28.205900
H 1.602250 24.095000 28.223900
H 3.220590 23.084000 28.775900
H 3.231400 23.074700 28.776000
H 3.841240 24.012900 28.239400
H 3.836820 24.014600 28.241200
H 2.847250 24.113000 28.194800
H 2.841400 24.102700 28.204200
H 4.252280 23.219000 28.682300
H 4.243800 23.215200 28.688400
H 5.051270 23.773900 28.360300
H 5.050520 23.789700 28.352200
H 5.376680 30.554600 20.570700
H 5.350900 30.602600 20.594800
H 5.886250 31.487100 20.648500
H 5.897040 31.448900 20.605100
H 5.235610 29.607200 20.854900
H 5.275770 29.564500 20.855900
H 5.571260 28.767500 21.359100
H 5.621330 28.743900 21.384100
H 8.916380 0.918800 2.003040
H 8.586370 1.880790 2.196650
H 9.746490 1.444940 2.187730
H 10.640000 0.996987 2.155260
H 10.576600 1.971070 2.372420
H 11.470100 1.523120 2.339960
H 8.789650 2.866970 2.437360
H 9.683130 2.419020 2.404890
H 9.471730 3.613100 2.660670
H 11.406700 2.497210 2.557120
H 10.513200 2.945160 2.589590
H 10.449900 3.919250 2.806750
H 11.462000 3.703380 2.836450
H 7.495830 20.076900 3.382060
H 7.509940 20.077100 3.412950
H 7.782010 19.404100 4.151050
H 7.783530 19.395700 4.106650
H 8.150280 20.577200 3.995970
H 8.143580 20.572600 3.960650
H 7.581030 21.018200 2.987290
H 7.555260 21.023700 2.967530
H 7.976220 21.975100 2.988120
H 7.945890 21.982500 2.974150
H 8.368610 21.525400 3.756690
H 8.383420 21.526200 3.783550
H 8.341260 19.162700 4.947150
H 8.324330 19.179300 5.003810
H 8.557470 20.128300 4.791400
H 8.566290 20.115500 4.743200
H 9.019590 19.440200 5.678350
H 8.991600 19.463200 5.742740
H 9.214040 20.611100 5.321780
H 9.197810 20.628400 5.374410
H 9.439070 21.563900 5.117830
H 9.016350 22.021000 4.335280
H 9.430950 21.577400 5.162000
H 8.790610 21.077300 4.578980
H 9.023750 22.026300 4.366570
H 8.791320 21.068200 4.539240
H 10.071300 22.077400 5.745020
H 10.086800 22.059600 5.696420
H 9.605000 20.179500 6.169840
H 9.636750 20.154000 6.104330
H 10.000200 21.136400 6.170680
H 10.027400 21.112800 6.110940
H 8.588040 22.171900 14.673600
H 9.596690 21.953200 14.755000
H 10.560700 22.244500 14.994900
H 9.120310 18.258600 18.256200
H 9.121550 18.309200 18.294600
H 9.135120 18.318700 18.253300
H 9.275630 19.003800 17.542500
H 9.275990 18.948200 17.499800
H 9.289410 19.029200 17.516400
H 9.902300 19.219700 18.230600
H 9.928720 19.270500 18.246500
H 9.916140 19.259800 18.266600
H 9.767310 19.783300 17.135100
H 10.530300 20.062600 18.142700
H 10.495600 20.015700 18.110600
H 10.518500 20.048800 18.145300
H 9.786300 19.869100 17.170700
H 10.462600 20.540100 17.259800
H 9.772960 19.835700 17.178500
H 10.480300 20.581800 17.300000
H 10.492700 20.613300 17.308900
H 11.175600 21.015900 17.840400
H 11.219200 21.062300 17.894000
H 11.208100 21.042400 17.874500
H 9.341980 17.899200 19.201500
H 9.364780 17.927800 19.184100
H 9.352000 17.937900 19.233100
H 9.881610 17.966500 20.082400
H 9.916850 17.961400 20.059200
H 9.905240 17.989400 20.106600
H 9.935290 18.695200 19.081400
H 9.954330 18.726900 19.111800
H 9.966410 18.719800 19.080300
H 10.643400 18.410400 20.644300
H 10.594800 18.982900 19.835900
H 10.605700 18.961100 19.810400
H 10.561600 18.966800 19.812200
H 10.556600 19.515900 18.990600
H 10.528600 19.491200 18.961400
H 10.568000 19.511800 18.976600
H 11.121900 20.287200 18.841400
H 11.159000 20.304900 18.869300
H 11.169700 20.303900 18.872900
H 11.207300 19.753200 19.706700
H 11.197200 19.771900 19.714600
H 11.154900 19.762700 19.692200
H 10.633000 18.449900 20.681100
H 10.594600 18.442300 20.663000
H 11.340300 19.196100 20.802700
H 11.289900 19.199200 20.787600
H 11.349800 19.154600 20.782500
H 6.150190 22.396200 20.945100
H 6.150460 22.385900 20.918800
H 6.204550 22.257800 21.934000
H 6.174160 22.239800 21.848600
H 6.196360 22.266300 21.910500
H 6.242250 22.146700 22.902300
H 6.258920 22.119400 22.922900
H 6.279730 21.990900 23.830200
H 6.288140 22.027200 23.894100
H 6.313280 21.981000 23.911800
H 7.469150 24.808100 1.218280
H 7.427580 24.810400 1.218240
H 6.555110 24.801500 0.660979
H 6.596840 24.774900 0.661685
H 8.476680 25.034000 1.293440
H 8.440390 25.010700 1.295040
H 9.322160 25.348800 0.870797
H 9.349480 25.392100 0.867045
H 8.563050 22.696200 3.400120
H 8.589630 22.691400 3.415230
H 9.256890 22.975200 4.154160
H 9.241380 22.973800 4.131320
H 9.799110 22.740800 4.971830
H 9.799210 22.750500 5.006920
H 10.277800 24.794300 9.337040
H 10.358200 24.784000 9.352670
H 11.053500 25.475900 9.262860
H 11.120200 25.483100 9.303580
H 11.511200 26.350700 9.574320
H 8.233430 25.134100 11.186500
H 9.469290 24.454300 9.768530
H 9.391910 24.488600 9.777000
H 8.633240 24.640600 10.464800
H 8.691560 24.582500 10.439800
H 8.205070 25.209700 11.216200
H 9.035870 25.703400 10.959200
H 9.058860 25.648600 10.954000
H 9.629290 25.342800 10.239600
H 9.676790 25.308600 10.245000
H 10.460100 25.836500 9.982480
H 10.502200 25.823100 10.012600
H 9.266370 26.502900 11.430500
H 9.273250 26.557600 11.421700
H 11.077000 27.743500 11.003300
H 11.100100 27.753500 10.939400
H 9.866670 26.197000 10.702100
H 10.709700 26.677400 10.489000
H 10.697500 26.690700 10.445000
H 10.104100 27.051300 11.164700
H 10.091800 27.017300 11.198000
H 9.884300 26.163000 10.721500
H 8.217650 25.961500 11.808600
H 8.222120 26.043400 11.829900
H 8.679830 26.918200 12.141300
H 8.648440 26.842800 12.139500
H 9.455550 27.599800 12.067200
H 9.410380 27.542000 12.090400
H 10.341400 27.905500 11.627200
H 10.299300 27.871700 11.674500
H 7.805060 22.842000 14.772400
H 7.457550 23.783900 15.025100
H 9.513470 22.904900 15.050800
H 8.617660 23.349200 15.059500
H 9.430250 23.856500 15.346500
H 11.221900 22.967800 15.329100
H 10.326100 23.412200 15.337800
H 11.402900 23.929200 15.667900
H 7.638630 24.745300 15.363900
H 8.534440 24.300900 15.355200
H 9.347030 24.808200 15.642200
H 8.299760 25.468500 15.698000
H 9.263810 25.759800 15.938000
H 10.242800 24.363800 15.633500
H 11.055400 24.871100 15.920500
H 10.272500 25.541100 16.019400
H 6.104570 22.505400 19.927000
H 6.095820 22.534600 19.956200
H 6.732340 23.258800 20.258900
H 6.691410 23.246000 20.199300
H 6.732500 23.276800 20.296000
H 6.068580 22.488700 19.866900
H 6.432780 22.742900 21.023900
H 7.216490 23.746200 21.033400
H 6.782840 23.030400 21.915400
H 7.227710 23.746100 21.074800
H 7.175630 23.733600 20.973600
H 6.706420 23.006200 21.472000
H 7.427300 23.837100 22.042900
H 7.391520 23.821000 21.982300
H 7.448770 23.816500 22.083700
H 6.716130 23.001900 21.504400
H 6.752320 22.886700 22.463700
H 7.336440 23.469300 23.052500
H 7.281210 23.484700 22.955200
H 7.308280 23.507100 23.017000
H 6.920820 22.797500 23.721700
H 6.874270 22.814800 23.631600
H 6.524210 22.527300 22.740100
H 6.891320 22.844600 23.694500
H 6.770500 22.863500 22.493300
H 6.580540 25.700900 30.819300
H 7.470980 26.020500 30.389600
H 7.722410 25.773900 31.325500
H 7.462310 26.039000 30.395100
H 6.598180 25.662400 30.816000
H 7.265940 25.612900 31.542200
H 8.213240 25.882100 31.368500
H 8.478520 26.246400 30.464700
H 8.475120 26.239300 30.471900
H 9.347590 26.248200 31.029200
H 9.350830 26.279600 31.021300
H 6.093500 24.943200 32.612700
H 6.056770 24.986400 32.612500
H 7.033910 25.397700 31.945600
H 7.689460 25.167600 33.161600
H 7.285340 25.151000 32.881500
H 7.004060 25.255600 32.438700
H 6.066070 25.315600 31.631000
H 6.093990 25.268100 31.629700
H 7.951350 25.524800 32.265000
H 7.973830 25.527200 32.261500
H 8.662330 25.903400 31.641400
H 8.225260 25.280600 33.197400
H 8.898640 25.794100 32.091300
H 8.636760 25.436800 32.987800
H 8.913750 25.656800 32.577300
H 9.845930 26.063300 31.917600
H 9.854170 26.111200 31.910200
H 9.836630 25.734100 32.899100
H 9.853680 25.786400 32.893200
H 9.691250 33.078600 1.908400
H 10.703300 32.862800 1.938100
H 6.267920 28.308700 21.972300
H 6.320780 28.312700 22.013900
H 7.464560 29.571300 22.342200
H 7.434720 29.539400 22.324400
H 6.631420 29.254900 21.888500
H 6.593240 29.248700 21.869000
H 6.077090 29.897900 21.310400
H 6.108910 29.880800 21.309500
H 7.760040 30.479400 22.221200
H 6.918560 30.188600 21.765800
H 6.942050 30.197200 21.763200
H 7.775190 30.513500 22.216900
H 6.402410 30.837900 21.207100
H 6.419540 30.823000 21.184200
H 7.243890 31.128600 21.662600
H 7.252690 31.139400 21.637800
H 6.698210 32.023700 21.001500
H 7.563320 32.081600 21.512500
H 6.697400 32.007900 20.949800
H 7.569210 32.068500 21.559300
H 8.262770 31.650500 22.142300
H 8.265870 31.609700 22.172500
H 7.138920 28.353600 22.530100
H 7.186700 28.386500 22.576600
H 7.987070 28.945400 22.921200
H 7.950880 28.890200 22.883100
H 8.486220 29.774700 22.936800
H 8.507420 29.839800 22.955600
H 8.601520 30.770100 22.676600
H 8.608330 30.829900 22.670500
H 10.992000 28.207600 26.638500
H 10.687900 28.827200 27.367300
H 10.672100 28.870200 27.366800
H 11.028300 28.166300 26.646800
H 10.851400 29.400100 28.238000
H 11.481800 29.655200 29.018600
H 11.460600 29.630000 29.028200
H 10.846100 29.362900 28.239000
H 12.363600 1.075170 2.307490
H 12.566800 2.061360 2.548200
H 16.247400 1.985990 4.143000
H 15.231800 2.178100 4.202820
H 12.236800 3.023350 2.741810
H 14.446100 2.740870 4.574040
H 14.100800 3.523500 5.157190
H 15.189000 3.938860 5.580500
H 16.168500 2.773710 4.753990
H 15.267900 3.151150 4.969510
H 16.089600 3.561430 5.364980
H 16.911400 3.971700 5.760450
H 16.990300 3.183990 5.149460
H 14.288400 4.316300 5.796010
H 16.010800 4.349140 5.975970
H 14.958600 4.906830 6.319340
H 15.931900 5.136860 6.586950
H 16.947500 4.944750 6.527140
H 13.181400 1.849010 29.436400
H 13.831100 2.026300 28.650100
H 14.371400 3.055850 29.079100
H 13.676200 2.679720 29.691700
H 14.866100 3.886560 29.334400
H 14.571800 2.601270 28.211300
H 15.205100 3.419840 28.237500
H 15.561300 4.262690 28.721800
H 15.544900 4.903970 29.534400
H 12.796900 2.116900 30.359600
H 12.780600 2.758180 31.172200
H 14.170900 3.510430 29.947000
H 13.475700 3.134310 30.559600
H 13.970500 3.965020 30.814900
H 14.665700 4.341140 30.202300
H 14.510800 4.994560 31.243900
H 15.160400 5.171850 30.457600
H 13.136800 3.601030 31.656500
H 13.770100 4.419600 31.682700
H 14.924100 8.910510 29.647900
H 14.931000 8.872210 29.656600
H 15.699100 9.521390 29.334800
H 15.704700 9.472540 29.320600
H 16.632800 9.938850 29.495600
H 16.641900 9.889500 29.460900
H 14.582600 7.771200 31.255800
H 14.604100 7.770890 31.293800
H 14.515400 8.269900 30.351000
H 14.528200 8.249360 30.378900
H 16.314900 8.788180 31.098100
H 16.291200 8.799540 31.103500
H 15.623000 8.830190 30.377400
H 15.607700 8.855030 30.375700
H 15.436900 8.285370 31.179600
H 15.459500 8.279540 31.195900
H 16.462000 9.369190 30.299500
H 16.478400 9.338840 30.279500
H 15.138500 7.565000 32.156300
H 15.107500 7.548040 32.119700
H 15.949600 7.660220 32.711400
H 15.988000 7.686860 32.735300
H 16.974700 8.744050 31.831300
H 16.925200 8.103820 32.875500
H 16.120400 8.229880 31.907500
H 16.151500 8.237520 31.916700
H 16.883300 8.077680 32.872200
H 13.211200 19.562100 2.050420
H 13.092600 20.198300 1.288020
H 13.622200 19.079200 1.232030
H 12.649800 21.082200 1.438660
H 12.531100 21.718400 0.676265
H 12.325800 21.330000 2.351680
H 12.088500 22.141200 1.753840
H 12.736700 20.386000 2.460240
H 11.771300 21.095900 18.769100
H 11.761300 21.093900 18.748100
H 11.715200 21.083200 18.721300
H 11.781200 20.034300 20.422900
H 11.837700 20.027900 20.438600
H 11.846600 19.994500 20.436800
H 11.991700 20.722600 19.686600
H 12.000900 20.705000 19.699900
H 11.936900 20.723900 19.666600
H 13.622000 20.338900 31.539500
H 13.211100 21.282900 31.430900
H 13.298000 20.586700 32.452500
H 13.416600 19.950500 33.214900
H 13.859400 19.066600 33.064200
H 13.859300 19.527700 32.137300
H 12.973900 20.834400 33.365500
H 12.736500 22.106800 31.840700
H 12.855200 21.470600 32.603100
H 12.088400 22.602300 0.826897
H 11.550900 26.364500 9.634440
H 11.528300 27.184400 10.188000
H 11.535200 27.191800 10.256600
H 16.130500 23.446100 15.057900
H 16.520800 24.263600 14.473500
H 16.488900 24.216700 14.513300
H 16.500200 24.219700 14.477600
H 16.126600 23.438900 15.092500
H 16.156800 23.471100 15.031400
H 16.977400 25.126400 14.437900
H 16.996300 25.125100 14.401100
H 16.128800 23.005800 16.976400
H 16.473800 23.855000 16.207100
H 16.479500 23.861600 16.172200
H 16.496600 23.860600 16.157800
H 16.013300 23.010800 15.947600
H 15.987600 23.001300 16.020400
H 15.986500 23.011500 15.986500
H 16.959900 24.708800 16.393700
H 16.979900 24.710400 16.368100
H 16.750400 24.487000 15.420800
H 16.724400 24.462800 15.453500
H 16.736300 24.465600 15.417700
H 16.972400 24.711600 16.357800
H 16.726200 24.084000 17.105100
H 16.458800 23.503500 17.866700
H 16.472400 23.457600 17.842200
H 16.458700 23.493300 17.900900
H 16.709300 24.101000 17.147300
H 16.715600 24.107500 17.112200
H 16.952000 24.245100 18.313000
H 16.942500 24.291100 18.349600
H 16.109200 23.021200 17.048300
H 16.106600 23.032600 17.014600
H 16.948600 24.298100 18.314500
H 11.725300 27.589700 26.248300
H 12.675600 27.182200 26.300600
H 12.605300 27.778500 27.100300
H 12.640100 27.761900 27.135300
H 12.731200 27.163600 26.339200
H 11.776300 27.557400 26.270500
H 13.637400 27.090400 26.834500
H 14.218600 27.349300 27.562100
H 14.251900 27.357400 27.623700
H 13.588200 27.094200 26.781500
H 13.376800 27.862000 27.731100
H 13.400400 27.858800 27.777500
H 14.397800 27.879200 28.433300
H 14.410100 27.893100 28.495400
H 12.325600 22.589700 32.659100
H 15.246500 30.336000 2.045990
H 15.239000 30.356400 2.034220
H 15.245300 30.399800 2.009820
H 15.253800 30.381900 2.057230
H 15.393200 29.917500 1.109340
H 15.385400 29.937400 1.131570
H 15.384300 29.947500 1.089020
H 15.383900 29.914300 1.110510
H 16.621400 30.063700 1.032620
H 16.302600 30.213700 1.418750
H 16.297900 30.192600 1.405690
H 16.300100 30.219600 1.384630
H 16.224000 30.425300 1.875980
H 16.423900 30.632400 2.294930
H 16.425000 30.684200 2.261280
H 16.434300 30.672800 2.297340
H 11.681500 33.168900 2.084180
H 16.811600 30.855900 2.561110
H 15.648900 30.855500 2.888760
H 15.634200 30.876800 2.842310
H 15.635800 30.793800 2.888990
H 15.612700 30.832300 2.874300
H 16.464900 31.231100 3.403340
H 16.447000 31.250600 3.363430
H 16.447400 31.165200 3.413640
H 16.414100 31.217600 3.404480
H 11.788700 28.263300 27.289100
H 12.535000 28.374700 27.900000
H 11.763500 28.291200 27.269300
H 12.549000 28.360200 27.931300
H 12.464700 28.971000 28.699800
H 13.321700 29.163000 29.592200
H 13.344600 29.159700 29.551800
H 12.457900 28.958500 28.727400
H 12.394400 29.567300 29.499500
H 12.366700 29.556800 29.523500
H 13.309300 28.457100 28.573600
H 13.306500 28.458300 28.530800
H 11.693200 28.887400 28.069000
H 11.697500 28.861600 28.085100
H 14.077900 28.541900 29.161600
H 14.069700 28.554000 29.215900
H 16.960000 29.591300 32.762300
H 16.965900 29.562400 32.766800
H 16.989500 29.579500 32.792700
H 16.008500 29.640900 33.199700
H 16.014100 29.641000 33.166500
H 16.033900 29.633100 33.187400
H 16.011100 29.641700 33.173100
H 16.956200 29.571900 32.788600
H 17.220600 2.216020 4.410610
H 18.078500 3.599350 5.572770
H 17.890900 2.806550 4.933940
H 17.733200 4.381980 6.155920
H 17.145500 9.313700 31.027400
H 17.170400 9.296820 31.000200
H 17.474900 10.051000 30.087300
H 17.491400 10.011400 30.039900
H 18.025800 9.805470 30.902400
H 17.999800 9.827870 30.951200
H 18.066900 9.329170 31.856000
H 18.101700 9.327000 31.817300
H 17.698900 8.704150 32.539600
H 17.658300 8.688560 32.559100
H 17.006900 8.746160 31.818800
H 21.233500 13.799800 29.701600
H 21.150400 14.688700 29.177400
H 21.137100 14.724600 29.204800
H 22.290500 15.132600 29.375300
H 21.228100 13.843800 29.741200
H 22.278800 15.173000 29.381900
H 21.566800 15.577400 28.847600
H 21.547900 15.608800 28.856600
H 22.350400 16.259500 28.789900
H 22.371000 16.227700 28.800600
H 21.793600 13.148900 30.279700
H 21.796400 13.202400 30.322200
H 22.118900 14.290600 29.824300
H 22.123800 14.243800 29.802300
H 19.641800 22.377900 23.054000
H 17.486100 25.919700 14.848900
H 17.461200 25.924200 14.886600
H 17.487500 25.963200 14.894000
H 17.007900 25.175700 14.423100
H 17.229300 25.315600 15.603400
H 17.233700 25.336800 15.631000
H 17.210500 25.316500 15.640100
H 17.465400 25.561600 16.543500
H 17.446100 25.562500 16.580400
H 17.463300 25.560200 16.578300
H 17.946600 26.410100 16.788600
H 17.932200 26.416200 16.767000
H 17.831100 26.415000 15.759800
H 17.838200 26.390600 15.701000
H 17.810700 26.396300 15.739100
H 17.958400 26.411600 16.729100
H 17.803100 25.949700 17.704700
H 17.793200 25.978600 17.694900
H 17.814400 25.977100 17.657700
H 17.439000 25.157300 18.262700
H 17.430900 25.200800 18.274200
H 17.444700 25.203500 18.238000
H 17.209500 24.933900 17.315400
H 17.195400 24.954800 17.334000
H 17.208600 24.957500 17.297900
H 17.598100 24.166200 22.263200
H 17.536900 24.218600 22.241500
H 18.578300 24.247900 22.443900
H 18.617300 24.819500 22.328400
H 17.739200 25.218300 22.064100
H 17.819100 25.163900 22.096900
H 18.506100 25.938000 22.071900
H 18.412100 26.004300 22.028300
H 19.032300 25.133700 22.348300
H 19.435400 25.393300 22.368300
H 20.466400 26.101300 22.433300
H 19.475100 26.281100 22.195100
H 20.370700 26.206300 22.379600
H 19.375300 26.365900 22.143800
H 18.620200 22.635000 22.806000
H 18.650500 22.557700 22.815800
H 17.902500 23.212300 22.526400
H 17.859400 23.273000 22.513100
H 18.677400 23.846800 22.552900
H 19.104500 23.443600 22.720200
H 19.555500 23.448000 22.817300
H 20.084600 23.525300 22.900900
H 20.373500 24.021800 22.857100
H 20.610800 22.721000 23.177200
H 20.578800 22.837000 23.157200
H 19.615600 22.475400 23.041800
H 21.297800 23.495100 23.152200
H 21.251700 23.623000 23.121500
H 19.495400 24.420600 22.592800
H 20.538600 24.411100 22.805200
H 20.012400 25.215400 22.528900
H 20.313500 24.994400 22.632600
H 19.558400 24.329500 22.624600
H 21.214400 25.446700 22.722700
H 21.518800 24.492800 22.985900
H 21.454000 24.622700 22.944000
H 21.131500 25.568200 22.672500
H 17.211900 30.470900 1.700870
H 18.006600 30.299200 1.099220
H 18.000000 30.309400 1.106810
H 18.005100 30.307300 1.114500
H 18.194000 30.563200 1.559510
H 18.126000 30.749200 1.996050
H 18.131600 30.763800 1.975860
H 18.136900 30.766400 1.993100
H 17.796600 30.924800 2.402870
H 17.219700 30.490100 1.705920
H 17.215800 30.491700 1.680250
H 17.090900 30.027100 0.803603
H 17.209000 30.494300 1.717740
H 17.606400 30.132600 0.874379
H 17.088000 30.031000 0.827328
H 17.086000 30.031100 0.811630
H 19.024800 31.071000 2.326150
H 19.054000 31.042700 2.280280
H 19.040000 31.027400 2.291230
H 19.047300 31.035900 2.271480
H 19.179000 30.632100 1.401270
H 19.177300 30.605700 1.355750
H 19.186400 30.583600 1.350680
H 19.185700 30.598200 1.354610
H 17.351500 30.949100 2.584520
H 17.340800 30.956400 2.556890
H 17.337900 30.910600 2.590110
H 18.430900 31.339200 3.052040
H 18.384100 31.355400 3.088000
H 18.417500 31.342400 3.033860
H 18.412800 31.300000 3.068520
H 17.465700 31.421000 3.433540
H 17.463900 31.350400 3.479350
H 17.483200 31.408200 3.463110
H 17.428500 31.409000 3.482700
H 18.409500 28.440800 25.684200
H 18.394500 28.445300 25.651000
H 18.193400 29.616400 26.003400
H 18.181400 29.608200 26.032300
H 19.038300 29.490900 25.483400
H 19.034900 29.498500 25.522800
H 19.310000 28.594100 25.196800
H 19.291700 28.581700 25.152900
H 20.063000 29.232100 24.884200
H 20.053100 29.205400 24.831800
H 18.784900 30.400100 25.813900
H 18.759800 30.403000 25.848900
H 20.474800 30.149200 24.773900
H 20.466900 30.183800 24.830000
H 19.629900 30.274600 25.293900
H 19.613300 30.293400 25.339500
H 20.413300 31.194300 25.048900
H 20.443600 31.160200 24.994700
H 19.338200 31.197900 25.665500
H 19.376500 31.183800 25.624400
H 19.916700 31.992700 25.482100
H 19.968000 31.967500 25.435000
H 19.110100 32.365200 26.013500
H 19.175400 32.354800 25.976800
H 17.602900 28.813300 26.215600
H 17.601900 28.832700 26.192800
H 17.126300 29.640000 26.633100
H 17.106300 29.611700 26.648800
H 17.052700 30.622200 26.867700
H 17.516700 31.594700 26.796000
H 17.456600 31.574000 26.813500
H 17.906300 30.512600 26.358300
H 17.940000 30.525500 26.333900
H 18.531600 31.309200 26.144400
H 18.484700 31.307500 26.174900
H 17.095100 30.651000 26.853900
H 18.209600 32.211900 26.500900
H 18.278200 32.218400 26.475000
H 18.003900 29.771000 32.870900
H 17.984700 29.732900 32.836900
H 17.974500 29.749000 32.848400
H 17.976500 29.776600 32.828000
H 18.805300 30.156300 33.401100
H 18.790500 30.124600 33.363000
H 18.788100 30.147900 33.352600
H 18.797400 30.106600 33.358100
H 24.234700 16.226800 29.526200
H 23.180800 15.576600 29.476000
H 23.169600 15.619800 29.465000
H 24.223000 16.272200 29.492400
H 23.329500 16.502300 29.022700
H 23.347500 16.465400 29.049000
H 23.657400 13.147900 31.005200
H 23.668900 13.215200 31.024700
H 22.689800 12.972300 30.791900
H 22.680900 12.910200 30.756900
H 23.014200 14.687800 29.902900
H 23.009700 14.737300 29.907300
H 22.847500 13.799000 30.329900
H 22.849700 13.854800 30.349600
H 23.740500 14.301600 30.432700
H 23.737900 14.243000 30.430600
H 23.904600 15.131800 30.003600
H 24.471400 13.865900 30.958000
H 24.461600 13.798200 30.958200
H 24.878000 14.686900 30.628500
H 24.882200 14.750100 30.609800
H 23.900500 15.184100 29.990300
H 24.794900 15.575800 30.104300
H 24.791300 15.630800 30.073400
H 29.456600 27.903400 19.077600
H 29.472600 27.866200 19.101400
H 30.205200 27.917400 19.780200
H 30.011700 26.990800 18.980200
H 29.995900 27.030500 18.939600
H 30.463900 27.509200 19.682400
H 31.273600 27.103700 20.106700
H 30.799000 26.377300 19.255200
H 30.786000 26.414200 19.199600
H 30.868400 27.172900 19.857100
H 31.623500 26.190200 19.852800
H 31.615200 26.219500 19.788100
H 32.261400 26.498700 20.547300
H 31.601000 27.224000 20.535800
H 32.264200 26.479600 20.612700
H 32.549600 27.167900 21.331400
H 31.741600 27.582400 20.849500
H 32.551300 27.176900 21.273800
H 29.326000 28.769100 19.586300
H 29.312600 28.798900 19.576700
H 29.602500 29.477100 20.303300
H 29.611400 29.457500 20.305100
H 30.122300 28.393400 20.001000
H 30.274600 28.713000 20.382000
H 30.931900 27.987900 20.425300
H 30.937800 27.968500 20.458900
H 30.590300 28.872100 20.743900
H 31.007200 28.764100 21.060700
H 31.400000 28.466600 21.168100
H 31.077900 29.561600 21.650900
H 31.076600 29.559800 21.662500
H 30.252100 29.746900 21.065000
H 30.248600 29.756300 21.062500
H 31.670400 28.019700 21.137600
H 31.868000 28.945200 21.911000
H 31.863900 28.946300 21.937500
H 32.403000 28.070800 21.816400
H 32.407300 28.072400 21.772900
H 2.132650 13.316800 1.299060
H 2.115390 13.344700 1.301820
H 2.132070 13.348500 1.312120
H 2.255590 13.757100 2.241050
H 2.260130 13.779100 2.244880
H 2.263720 13.717100 2.244790
H 2.678410 14.142700 1.157190
H 2.683790 14.165900 1.146340
H 2.747540 14.363300 1.616180
H 3.224160 14.968600 1.015330
H 3.239480 14.969600 0.991311
H 2.942520 14.757800 1.909710
H 2.938150 14.710700 1.938200
H 3.229090 15.164200 1.972140
H 3.235510 14.983300 0.980557
H 2.757930 14.168700 0.635352
H 3.483900 15.536500 1.796330
H 3.494240 15.575200 1.743930
H 3.721030 15.770500 1.347270
H 4.202580 16.571300 1.703230
H 4.171340 16.610600 1.670600
H 4.154260 16.578000 1.753340
H 3.769910 15.794400 0.873458
H 3.787230 15.800700 0.814778
H 4.315660 16.620300 0.731589
H 4.338940 16.618100 0.648998
H 4.363580 16.594400 0.680796
H 2.659430 14.494300 2.845420
H 2.652130 14.452800 2.861080
H 2.649540 14.532300 2.838860
H 3.783520 16.119100 2.534900
H 3.743640 16.104500 2.577340
H 3.752970 16.167100 2.507300
H 3.193820 15.326600 2.982800
H 3.218690 15.358800 2.952970
H 3.195960 15.406400 2.934920
H 0.624578 12.661100 7.624100
H 0.622697 12.633100 7.695580
H 0.655224 12.618600 7.666540
H 0.648906 12.642400 7.641740
H 1.281990 12.494100 8.406240
H 1.312440 12.450600 8.448620
H 1.270050 12.474100 8.487710
H 1.295460 12.493900 8.436560
H 1.748510 12.759400 9.335370
H 1.710760 12.819200 9.327340
H 1.714050 12.801400 9.295460
H 1.696210 12.793800 9.375400
H 0.899785 13.340300 8.643920
H 0.963382 14.350700 9.637460
H 1.071610 13.540700 9.061000
H 1.077510 13.532800 9.050690
H 1.070390 13.527200 9.109870
H 1.166870 13.846100 9.464200
H 0.985712 14.334300 9.641590
H 0.981326 14.340900 9.684250
H 0.754212 14.735800 9.659500
H 1.783550 13.531200 10.075400
H 1.846600 13.462200 10.089200
H 1.787000 13.506500 10.120800
H 1.805000 13.500600 10.053500
H 1.580420 14.370800 10.508100
H 1.518080 14.421300 10.524200
H 1.494310 14.439100 10.480300
H 1.530450 14.404400 10.477300
H 0.963980 15.270700 10.453200
H 0.961520 15.293000 10.477400
H 0.920548 15.299600 10.433500
H 1.021290 15.241600 10.479800
H 0.587893 12.141100 23.499600
H 0.860289 12.007200 24.484400
H 0.916398 12.018100 24.473600
H 0.850308 11.974300 24.543400
H 0.788098 12.172200 25.489300
H 0.734301 12.148900 25.557200
H 0.749393 12.190500 25.492400
H 0.734193 12.184900 25.496500
H 0.866249 12.006000 24.480400
H 2.276380 13.367800 33.119300
H 2.294060 13.359100 33.117200
H 2.299680 13.356000 33.130400
H 3.275060 14.560300 31.866100
H 3.260270 14.580300 31.869500
H 3.254500 14.610500 31.887700
H 2.718040 13.799600 32.293700
H 2.695440 13.820000 32.287600
H 2.704680 13.832600 32.293200
H 2.964420 14.400600 33.074200
H 2.976770 14.391400 33.057100
H 3.249880 14.774900 32.850400