ITEM: TIMESTEP
0
ITEM: NUMBER OF ATOMS
900
ITEM: BOX BOUNDS pp pp pp
5.9153331474142945e-01 3.3408466685257878e+01
5.9153331474142945e-01 3.3408466685257878e+01
5.9153331474142945e-01 3.3408466685257878e+01
ITEM: ATOMS id mol type x y z 
16155 0 3 3.35253 1.70703 0.837791 
270 0 3 4.94031 1.38177 2.53036 
1259 0 3 3.13661 3.19721 2.52728 
11359 0 3 3.58697 4.87308 4.27455 
9722 0 3 4.87956 3.41562 11.1078 
9213 0 3 2.76444 1.99101 14.0327 
3998 0 3 0.77394 2.99795 14.5823 
15303 0 3 4.34832 4.84149 13.894 
19168 0 3 0.921064 0.997124 16.6045 
17186 0 3 4.07719 1.24227 18.1788 
5727 0 3 1.63291 3.97647 17.1902 
7745 0 3 3.48549 2.29192 19.3211 
15920 0 3 2.18814 2.85404 21.3624 
9422 0 3 1.71722 2.96756 22.4227 
7139 0 3 3.7925 2.64275 23.0433 
14852 0 3 2.98987 4.15574 24.0927 
9002 0 3 4.17215 4.96934 25.7062 
13510 0 3 0.86783 1.8439 31.4394 
19874 0 3 2.09599 0.656118 30.7162 
2717 0 3 1.93204 0.736619 33.0649 
26087 0 3 4.4917 3.65458 31.8712 
22833 0 3 2.1674 8.67461 1.1914 
16924 0 3 2.85742 9.30107 6.91296 
3847 0 3 0.919285 11.5159 10.4745 
16635 0 3 4.00168 9.99492 9.89078 
25286 0 3 0.662683 7.62167 12.164 
5944 0 3 4.47871 6.5189 12.4109 
24981 0 3 5.60335 6.76154 13.2809 
24530 0 3 1.49753 8.8822 13.5898 
24763 0 3 0.695586 10.5752 15.8875 
24946 0 3 3.04553 11.4515 22.3421 
15910 0 3 2.71178 8.64091 24.19 
16207 0 3 3.56401 6.25163 28.7362 
7506 0 3 4.47072 8.40163 28.6581 
19371 0 3 1.86265 9.02414 30.8784 
6391 0 3 4.98199 11.3029 30.5711 
3349 0 3 2.16112 10.8055 31.8378 
23599 0 3 5.75482 13.1232 2.34106 
12250 0 3 4.77788 15.1865 1.50754 
24874 0 3 0.808758 16.1154 2.60873 
2379 0 3 5.5676 16.2679 3.17071 
924 0 3 3.51476 13.1131 4.4972 
1992 0 3 2.73055 13.4126 5.38187 
19980 0 3 2.07378 14.9237 6.60175 
20104 0 3 4.83299 12.4317 9.53978 
13267 0 3 0.913757 15.0571 9.43069 
26577 0 3 3.39626 11.9639 11.144 
21152 0 3 5.92432 15.2574 10.6269 
4085 0 3 3.93739 12.4097 12.5275 
24051 0 3 3.20846 16.7953 15.3651 
24288 0 3 5.71523 15.8159 16.5761 
3592 0 3 3.1247 16.2598 18.3719 
22253 0 3 1.13059 15.6185 21.8898 
12436 0 3 4.77945 11.7498 27.1403 
26928 0 3 5.14032 15.4905 30.331 
19152 0 3 0.811536 12.4909 31.6784 
22134 0 3 2.50659 12.7615 31.9506 
20629 0 3 1.63654 19.1355 3.38122 
12255 0 3 1.22347 18.1182 6.034 
13589 0 3 4.18988 18.4921 6.76615 
11480 0 3 2.10174 17.0974 8.32925 
13600 0 3 2.38862 18.2162 15.4023 
1730 0 3 4.0131 17.7267 15.6871 
9612 0 3 2.77054 21.1697 16.88 
21472 0 3 2.80096 21.8268 15.9259 
10931 0 3 1.80436 17.7637 18.5219 
5811 0 3 2.80234 17.7299 18.1574 
20222 0 3 3.79625 18.1824 18.1608 
20504 0 3 5.73023 17.0679 18.3337 
12684 0 3 3.63968 20.1229 17.5602 
23409 0 3 1.62834 20.1536 19.2764 
7581 0 3 4.68623 19.9358 20.8487 
20856 0 3 2.95445 17.6349 22.7446 
23292 0 3 5.79198 20.2399 23.7686 
9328 0 3 6.0553 21.3048 28.218 
20036 0 3 2.86711 17.5559 30.1446 
6140 0 3 5.11646 17.691 29.8632 
17458 0 3 4.58169 18.4625 30.4637 
15306 0 3 4.14421 20.4631 30.2294 
4216 0 3 4.42362 19.3833 29.8208 
26300 0 3 0.93975 19.7012 32.5527 
1215 0 3 3.01915 20.313 32.9469 
24528 0 3 1.79747 23.7331 1.82927 
25989 0 3 2.54757 24.651 1.71438 
403 0 3 3.18263 25.8704 4.02583 
3012 0 3 3.15116 27.2341 2.5939 
20411 0 3 3.42149 25.4753 6.02463 
25809 0 3 5.07813 25.8432 5.12761 
15912 0 3 0.822289 24.7285 7.86652 
21665 0 3 2.98429 26.9434 7.46103 
23613 0 3 0.84924 26.0451 12.5115 
17490 0 3 3.61752 26.3078 11.7406 
5661 0 3 0.972006 23.5173 16.5237 
12433 0 3 5.30976 27.1394 17.4354 
17631 0 3 0.676586 27.0284 20.6962 
24787 0 3 1.47609 23.4114 22.8146 
13817 0 3 2.76543 25.0999 30.3848 
18245 0 3 4.53049 26.6252 32.9548 
16910 0 3 1.61596 29.384 1.9518 
2400 0 3 4.2753 32.2338 0.601731 
14183 0 3 1.23692 32.8096 3.257 
26659 0 3 5.57235 32.8062 5.39891 
10590 0 3 3.31009 31.1614 9.5236 
1135 0 3 2.77872 32.2551 9.68278 
8405 0 3 4.29348 29.2615 9.82614 
6667 0 3 2.07576 29.5832 13.2695 
20698 0 3 4.67579 28.4515 12.467 
13377 0 3 1.62314 32.128 12.9038 
1756 0 3 5.5075 33.0719 14.3229 
6121 0 3 3.31862 28.7038 15.5845 
11568 0 3 0.938245 31.1911 16.6581 
11764 0 3 1.9935 29.825 16.1495 
25242 0 3 5.07694 31.5146 15.9529 
5119 0 3 1.20889 33.167 15.2011 
26114 0 3 3.79402 32.4185 17.3721 
10752 0 3 1.27261 33.1109 21.0162 
9943 0 3 2.08757 28.5294 22.7663 
294 0 3 3.6276 28.2787 24.1197 
19657 0 3 3.63819 30.556 24.8331 
20458 0 3 4.87364 29.8748 25.821 
674 0 3 1.14667 31.0104 27.4273 
23731 0 3 1.54099 29.1617 31.4516 
11929 0 3 3.22825 29.7983 30.5839 
24905 0 3 5.89245 31.128 30.0237 
22637 0 3 0.771334 29.8729 31.6618 
3431 0 3 5.35017 31.6508 32.0666 
25415 0 3 9.09298 1.9813 1.72961 
5282 0 3 7.3156 4.44288 3.47076 
25559 0 3 10.6441 5.44236 4.2958 
6301 0 3 9.67568 3.06808 6.07073 
13582 0 3 7.42943 4.91607 6.97863 
22590 0 3 10.4544 5.8554 6.41339 
6160 0 3 10.4414 2.02397 9.64342 
10136 0 3 7.00506 2.76195 8.69916 
5033 0 3 6.322 1.83189 11.2439 
17809 0 3 9.32208 2.34519 10.6349 
24660 0 3 8.68279 5.52989 9.73265 
10508 0 3 8.18711 5.31865 11.3655 
2665 0 3 6.19931 6.02142 11.5841 
21882 0 3 10.2806 0.700902 13.5709 
19384 0 3 9.86106 5.90922 14.8999 
18967 0 3 8.38488 3.66086 16.1054 
664 0 3 10.6126 1.02057 18.7665 
11344 0 3 9.3818 4.98377 18.132 
20402 0 3 9.19581 0.79962 20.6272 
24258 0 3 10.8772 1.13166 19.7845 
11029 0 3 10.4319 3.64972 20.6311 
5902 0 3 8.27938 5.56686 19.7938 
25207 0 3 10.627 1.4519 22.468 
12234 0 3 7.11677 3.53284 21.4789 
20085 0 3 9.61319 5.97193 22.7635 
14850 0 3 8.06345 5.27451 23.4301 
19339 0 3 10.8811 1.59031 24.3318 
18381 0 3 7.25176 3.1173 25.1298 
26080 0 3 8.31025 4.70226 25.4558 
1589 0 3 6.69243 2.819 27.6327 
25506 0 3 10.5102 5.08899 33.115 
25988 0 3 8.23002 7.06963 0.736371 
8587 0 3 7.01541 7.29038 4.17261 
4568 0 3 8.35573 6.24819 8.8973 
12483 0 3 11.4887 6.20371 9.32911 
26402 0 3 10.1853 8.25572 9.61064 
16641 0 3 6.46817 6.56132 12.6282 
7243 0 3 6.85688 11.0794 11.546 
23316 0 3 11.4112 7.61191 14.6251 
24011 0 3 6.82835 6.27198 16.7592 
21807 0 3 11.0357 7.10845 17.2104 
12835 0 3 8.1059 9.99874 18.4065 
26929 0 3 7.90126 11.4398 17.3689 
12373 0 3 10.9013 8.15725 19.7394 
19768 0 3 7.94467 9.04015 22.257 
6453 0 3 10.396 10.6273 22.4548 
6556 0 3 7.81334 6.99001 22.6583 
25960 0 3 9.05462 7.18871 22.7721 
22991 0 3 10.1865 9.0176 23.7018 
7436 0 3 11.2139 6.47012 24.4499 
5567 0 3 6.94186 8.65127 24.5542 
16679 0 3 6.40346 11.4573 25.7693 
6395 0 3 10.8272 10.0676 24.8836 
25376 0 3 9.81393 11.0682 26.3604 
10011 0 3 7.598 10.9589 30.3306 
858 0 3 7.3174 8.09525 32.0239 
16912 0 3 6.77941 13.4176 1.62243 
22334 0 3 8.22381 14.9247 2.97541 
3310 0 3 9.83184 12.1781 5.91291 
21658 0 3 11.4623 13.9594 5.9715 
3605 0 3 10.3239 16.1385 5.04337 
598 0 3 9.82859 13.6623 7.31003 
11287 0 3 10.1087 16.5101 6.4664 
19543 0 3 10.7306 12.8859 9.05747 
1258 0 3 8.72459 13.6695 9.1492 
7444 0 3 7.27415 16.8774 9.24126 
24888 0 3 11.092 11.8707 12.2894 
15997 0 3 8.20636 14.7022 11.537 
20606 0 3 8.57991 15.1122 13.0553 
22487 0 3 9.12582 15.1917 11.6544 
21249 0 3 11.0322 12.6291 15.5536 
25947 0 3 7.15184 15.935 16.4895 
17597 0 3 8.2575 14.6455 18.4898 
1530 0 3 10.4639 15.9739 17.3299 
908 0 3 11.2823 15.7577 20.2944 
6532 0 3 11.525 13.3141 23.6803 
13237 0 3 9.56525 14.6191 23.0334 
282 0 3 9.09498 15.2035 25.5807 
12035 0 3 11.3914 15.7883 25.747 
26465 0 3 6.50607 13.7709 26.5353 
1040 0 3 8.98183 14.7677 27.8931 
17525 0 3 6.41718 15.6539 27.4069 
25551 0 3 9.42445 13.3912 29.0962 
1917 0 3 9.65423 14.6855 28.7443 
8271 0 3 6.3548 13.0921 31.0319 
16779 0 3 7.34661 15.7215 30.0369 
7738 0 3 7.87421 13.2234 32.521 
9043 0 3 11.3053 17.2317 1.0673 
19022 0 3 10.1152 19.9977 3.90566 
5431 0 3 9.47433 19.4132 5.99211 
1130 0 3 10.0703 21.4086 7.42989 
14223 0 3 6.41111 20.2016 9.47185 
13806 0 3 6.89463 20.4267 8.48072 
23122 0 3 6.57673 17.7382 10.94 
20614 0 3 11.0536 21.784 11.0509 
7725 0 3 8.52239 17.2803 11.6622 
3705 0 3 9.9369 18.3666 14.7901 
24615 0 3 6.17118 18.7891 15.3601 
26978 0 3 9.15038 18.0163 16.0804 
26970 0 3 9.9327 19.4998 15.4097 
17245 0 3 9.30667 18.414 19.04 
7799 0 3 9.99242 17.4316 18.967 
13793 0 3 9.49319 17.4966 22.0792 
23446 0 3 8.23262 18.146 22.7331 
15321 0 3 9.30997 20.8023 23.8563 
8222 0 3 7.2522 21.0634 26.7267 
24973 0 3 9.57184 20.8965 26.2665 
26445 0 3 9.04321 18.19 31.7211 
25901 0 3 10.0828 19.1472 33.2918 
10881 0 3 7.02262 24.6283 2.93391 
18354 0 3 8.74078 27.9313 2.6727 
23039 0 3 10.919 27.4062 5.5214 
28 0 3 6.16253 22.833 7.21298 
7558 0 3 11.4202 23.8204 6.69767 
13217 0 3 9.35944 24.6594 7.71831 
20903 0 3 10.9014 26.0174 9.82967 
23402 0 3 10.1861 25.8272 12.6235 
360 0 3 10.2827 26.4898 11.716 
10122 0 3 7.04549 22.4928 13.7838 
20327 0 3 8.30476 27.6839 14.9085 
24284 0 3 9.57213 23.5699 16.3847 
19159 0 3 10.2848 25.3428 15.2903 
8969 0 3 9.61494 26.8584 17.3046 
20346 0 3 9.64059 25.7752 19.1102 
16774 0 3 6.45208 23.641 26.2207 
12829 0 3 8.9264 27.5781 27.5587 
19024 0 3 9.67609 24.219 28.6142 
8667 0 3 8.44368 27.6557 29.2019 
23469 0 3 6.52455 26.7793 30.7862 
4680 0 3 6.11066 31.3065 3.84055 
502 0 3 8.11406 29.2381 4.8388 
7235 0 3 8.80143 33.3429 5.87217 
12441 0 3 7.62258 28.994 7.06629 
17201 0 3 10.0941 28.3776 7.09846 
14968 0 3 11.4608 29.2138 7.68966 
9708 0 3 9.50039 29.7849 9.53395 
6647 0 3 7.14398 28.1749 12.3754 
723 0 3 7.33032 30.9232 12.8355 
14268 0 3 7.66844 33.0391 13.2884 
21795 0 3 11.0467 31.7523 16.7118 
4180 0 3 9.03229 32.611 18.4269 
11898 0 3 7.11021 29.7505 20.0241 
5680 0 3 6.19941 29.9892 19.5482 
7355 0 3 6.18723 33.3798 20.4987 
5668 0 3 7.68184 31.7349 21.6903 
24831 0 3 6.39836 29.7193 24.7273 
12557 0 3 8.44815 28.9835 24.5099 
24879 0 3 6.87435 30.7078 25.2903 
7227 0 3 9.22861 32.1572 27.4247 
18592 0 3 10.9249 32.6812 26.5203 
25075 0 3 8.53471 31.3487 28.4266 
16643 0 3 6.64265 29.8013 31.5671 
11447 0 3 10.7542 29.836 30.1679 
18471 0 3 7.37931 31.8089 32.049 
8447 0 3 12.8724 0.949971 0.78991 
19188 0 3 11.8138 1.36311 1.58649 
4377 0 3 16.2712 3.68433 2.24224 
20643 0 3 14.9262 5.9969 1.04977 
19971 0 3 16.9218 6.02957 1.63086 
7537 0 3 12.4568 1.28981 2.69641 
25085 0 3 14.725 2.38901 3.42314 
19790 0 3 11.6558 2.02972 4.69582 
13300 0 3 16.3198 4.72272 5.33141 
6517 0 3 14.9909 0.920488 6.8349 
19140 0 3 15.6103 2.1406 9.63207 
8001 0 3 14.0186 2.72939 9.15694 
4328 0 3 12.4527 1.592 10.2009 
21036 0 3 16.619 0.981436 11.1096 
19177 0 3 13.2756 3.43231 10.3244 
3393 0 3 15.9181 5.60428 10.3608 
20357 0 3 16.1204 4.54074 10.6675 
17003 0 3 13.9821 1.97684 13.0264 
26393 0 3 14.8679 0.861595 16.9249 
16191 0 3 14.8442 1.09028 15.9151 
20699 0 3 11.7301 2.93799 17.002 
20384 0 3 11.6657 1.16515 19.0334 
2736 0 3 13.7231 2.99794 19.6589 
5684 0 3 16.6041 2.65656 19.7585 
20481 0 3 13.7044 5.52442 19.8999 
13673 0 3 16.0874 4.98676 21.9013 
23799 0 3 16.2725 1.43675 24.0459 
24964 0 3 15.4496 2.46501 24.2222 
9710 0 3 11.8014 4.62382 23.0742 
5760 0 3 11.9143 5.66991 24.5795 
21889 0 3 15.804 4.13757 30.4727 
8874 0 3 13.2099 7.13998 2.12426 
11701 0 3 12.2059 9.11452 2.15641 
8315 0 3 15.1794 8.28489 2.34786 
232 0 3 13.3333 11.0217 1.79168 
12537 0 3 14.7075 10.3845 1.97471 
10140 0 3 16.261 10.1994 1.24142 
9318 0 3 13.9258 9.89038 4.0241 
4820 0 3 13.1401 6.50303 5.53096 
1937 0 3 13.1249 7.34889 8.92055 
11171 0 3 14.7782 6.26466 9.5159 
26372 0 3 14.8809 11.282 8.14563 
22415 0 3 13.4397 8.51377 11.2622 
16353 0 3 12.2148 9.88513 10.5426 
25381 0 3 11.6346 8.63215 13.6937 
14081 0 3 14.1031 11.2086 14.2543 
22808 0 3 12.0288 11.0971 15.7002 
2778 0 3 15.5706 6.16223 21.1999 
833 0 3 13.1895 8.09771 22.7716 
20398 0 3 15.5625 10.5657 24.141 
10474 0 3 11.7018 10.0547 25.705 
14260 0 3 15.8257 10.9695 26.024 
12322 0 3 13.8806 7.65941 26.5211 
18056 0 3 13.6699 8.24963 28.2491 
1399 0 3 16.4718 10.9234 28.5233 
6789 0 3 13.5524 10.3309 31.3063 
16064 0 3 14.1752 15.3002 1.31241 
24985 0 3 14.1307 12.2935 3.7321 
12111 0 3 16.3182 13.3902 3.81924 
3408 0 3 11.7044 12.4606 6.03662 
18140 0 3 16.749 13.1921 5.76517 
3728 0 3 13.4963 11.6228 6.7139 
16524 0 3 14.5295 14.4493 10.8822 
15680 0 3 16.9828 14.8289 12.9138 
26222 0 3 16.5743 13.392 14.7061 
23324 0 3 12.1987 16.506 13.8848 
9927 0 3 14.2662 16.3053 13.3896 
12348 0 3 12.9538 12.6568 16.8861 
19541 0 3 14.2794 16.6199 15.1828 
20999 0 3 13.4567 13.7734 17.551 
21683 0 3 14.846 14.5172 19.1509 
23557 0 3 16.8799 12.1626 20.883 
5733 0 3 13.1255 14.9058 22.4437 
20953 0 3 13.7856 13.5249 21.0215 
25307 0 3 12.2354 15.4844 23.4969 
20455 0 3 16.5287 15.7959 22.8564 
18493 0 3 12.6402 13.3121 27.4805 
22675 0 3 11.5642 12.46 27.5451 
14337 0 3 13.6921 12.2651 26.4641 
7631 0 3 12.3399 13.107 29.2374 
15091 0 3 15.2646 16.5423 28.1624 
22507 0 3 16.7904 14.8072 30.0696 
14793 0 3 14.2513 12.3358 33.3331 
10425 0 3 11.6762 14.2134 31.676 
1757 0 3 14.7842 15.9361 33.3407 
555 0 3 14.1965 20.9464 2.32 
13251 0 3 15.4966 18.2665 3.07447 
5949 0 3 15.1034 20.3052 3.65587 
2189 0 3 11.9868 22.2948 3.63258 
7699 0 3 13.1731 18.3213 5.18218 
9332 0 3 15.3333 18.3039 9.26215 
5993 0 3 14.0135 17.3906 16.9237 
26749 0 3 15.3394 20.2505 15.3615 
14952 0 3 12.4473 20.5593 18.8508 
15594 0 3 16.3853 19.9725 19.9877 
11950 0 3 13.1067 20.9959 19.5893 
12552 0 3 16.1093 21.3854 19.2139 
17056 0 3 12.1962 18.7988 22.5265 
24991 0 3 13.3524 17.1426 24.9732 
19708 0 3 14.0537 18.5155 24.3833 
15376 0 3 13.5566 20.718 28.4009 
1244 0 3 13.5659 18.2255 30.2876 
12286 0 3 15.725 17.505 30.4974 
21585 0 3 12.6218 20.092 30.2394 
21112 0 3 15.8903 19.9233 30.861 
2687 0 3 13.1638 18.5249 31.7977 
23572 0 3 13.473 19.8472 33.0858 
15440 0 3 13.7028 21.197 32.9312 
24088 0 3 12.1066 23.8636 3.73031 
26763 0 3 14.6061 24.6227 2.54274 
8663 0 3 15.9408 27.0385 4.02142 
3738 0 3 16.1927 23.0681 5.49122 
12685 0 3 13.0061 25.7082 4.60278 
20693 0 3 14.4917 24.4386 4.87783 
21214 0 3 15.6165 22.9267 6.5901 
24463 0 3 13.7831 22.5418 8.09324 
24760 0 3 13.4332 24.3751 9.34313 
24838 0 3 11.7389 24.1254 10.8849 
17171 0 3 13.3829 25.3939 11.3268 
5791 0 3 16.8563 25.1146 13.9794 
7585 0 3 15.3517 27.7778 14.1908 
20827 0 3 12.618 25.3374 16.6928 
9420 0 3 13.8693 27.0125 15.9255 
25579 0 3 15.5331 27.5711 17.0481 
20951 0 3 14.3202 24.0236 18.8381 
10924 0 3 13.5706 24.0138 19.9937 
4999 0 3 12.8058 24.88 20.5129 
7650 0 3 15.6982 25.8645 19.3386 
396 0 3 14.9745 27.0625 19.304 
13876 0 3 14.0642 22.4989 21.1302 
4604 0 3 16.4755 22.9216 22.3746 
8433 0 3 15.0778 24.7855 21.4577 
558 0 3 14.6113 23.4864 23.4547 
10748 0 3 14.4254 25.1476 22.5233 
18443 0 3 16.6245 22.683 27.5817 
19972 0 3 14.4547 25.6801 30.0306 
16328 0 3 16.0222 25.6882 31.1198 
13986 0 3 12.5516 26.1863 31.0639 
21091 0 3 13.299 29.362 1.11818 
20186 0 3 13.7903 28.6493 3.0678 
25329 0 3 12.8795 31.8622 4.22462 
10333 0 3 12.0204 32.8745 3.58139 
20164 0 3 15.5699 32.0187 4.11567 
7016 0 3 11.8608 29.1394 6.01567 
10518 0 3 15.9724 29.3553 5.37212 
8305 0 3 13.1604 28.9325 7.55181 
8797 0 3 14.785 29.3402 8.21274 
26357 0 3 16.977 31.295 12.479 
16710 0 3 11.6761 33.2672 11.8208 
10569 0 3 15.7811 31.7106 13.2812 
11837 0 3 15.4573 31.3095 14.6116 
14133 0 3 14.5971 30.6757 17.0754 
18147 0 3 12.5039 28.09 19.934 
23996 0 3 13.6626 30.3017 18.9811 
644 0 3 15.0927 31.7935 19.0998 
8824 0 3 14.9381 28.6362 23.922 
21589 0 3 12.9263 32.7783 25.9039 
7545 0 3 13.1414 31.4811 27.7028 
6587 0 3 14.6339 33.2229 26.1814 
22124 0 3 12.7436 28.3863 28.1981 
25333 0 3 12.9715 29.7252 29.7641 
16149 0 3 17.2608 4.53732 2.26557 
985 0 3 20.2199 4.35613 1.99297 
1196 0 3 19.7923 1.26244 3.22153 
26741 0 3 18.7768 3.41678 5.56561 
14375 0 3 18.4167 2.32652 9.86039 
20072 0 3 21.7784 2.46352 10.2814 
17773 0 3 22.0603 3.9061 10.0306 
4500 0 3 17.2697 0.849637 12.6973 
25808 0 3 19.6723 1.2374 11.6067 
24780 0 3 20.7427 1.41197 11.6174 
23588 0 3 20.6359 3.31579 12.5356 
3676 0 3 21.3664 4.03844 12.6944 
26876 0 3 21.3687 4.98634 19.0481 
3025 0 3 20.9833 1.34363 25.0653 
18058 0 3 17.1824 1.42742 27.6615 
3608 0 3 18.7823 2.52303 27.8674 
20764 0 3 20.4804 5.95751 27.2464 
3965 0 3 19.2156 0.783909 30.4803 
26594 0 3 18.8855 4.23324 30.8727 
10898 0 3 21.4836 4.926 31.0094 
3997 0 3 21.2206 2.31893 33.3172 
17928 0 3 17.0493 5.13218 33.1821 
15590 0 3 17.3909 11.4639 3.55831 
17762 0 3 17.2971 7.78672 5.71053 
15014 0 3 18.1891 7.43042 4.93597 
26279 0 3 17.3288 8.97091 6.99363 
19589 0 3 19.1125 10.571 6.21034 
10478 0 3 20.5533 6.06642 9.39734 
22995 0 3 17.4066 8.15288 12.3425 
16126 0 3 17.1827 10.2823 12.216 
8462 0 3 22.4669 6.25573 15.6744 
17483 0 3 21.0815 7.96169 16.6164 
6085 0 3 19.0118 6.67814 18.4399 
12086 0 3 20.2665 10.3587 18.4724 
5005 0 3 19.0613 10.8166 18.305 
8120 0 3 21.1681 10.5524 20.1837 
20690 0 3 21.8802 8.57926 22.246 
10644 0 3 18.4216 10.9294 21.0927 
3114 0 3 18.4028 9.38618 23.9403 
979 0 3 21.6814 11.4295 25.1306 
12220 0 3 17.1683 8.60079 26.1867 
25942 0 3 17.7154 7.07074 28.7611 
10551 0 3 21.3509 8.77013 29.1005 
23746 0 3 18.8043 7.49405 30.9681 
20490 0 3 17.1346 9.13185 31.1483 
718 0 3 21.4029 6.75403 32.3762 
13168 0 3 18.155 9.67146 33.273 
23397 0 3 17.7528 14.5492 2.0448 
23186 0 3 19.2453 13.1033 5.36385 
3936 0 3 22.329 15.888 7.23599 
8013 0 3 18.666 16.6192 11.1626 
26839 0 3 20.2316 12.2913 12.2574 
14083 0 3 19.776 14.6299 14.4389 
17978 0 3 18.1488 16.8295 14.8054 
25004 0 3 22.2476 12.567 16.018 
9804 0 3 17.0373 13.2094 23.6195 
15098 0 3 20.0416 12.7072 23.5749 
16437 0 3 17.7745 16.694 23.3079 
25602 0 3 20.2643 15.6857 22.4954 
25290 0 3 17.5782 16.7839 24.5757 
17435 0 3 17.4164 15.6301 24.752 
10146 0 3 20.1721 11.802 26.9108 
26580 0 3 17.7613 16.9969 30.4676 
26084 0 3 21.8979 16.3981 32.2618 
2726 0 3 20.5465 17.1622 1.45866 
20954 0 3 18.6602 18.8784 1.76859 
12236 0 3 17.3202 20.3921 1.94821 
7299 0 3 18.2116 19.0903 0.714549 
22644 0 3 20.615 18.7671 2.88795 
7039 0 3 21.2268 18.1303 3.97469 
14423 0 3 22.0775 18.5402 5.50439 
3129 0 3 21.042 20.0026 4.79535 
107 0 3 18.4714 21.6708 4.69365 
15915 0 3 17.7223 22.3734 9.08428 
26441 0 3 19.1568 20.8609 9.32989 
5393 0 3 17.1393 17.7402 12.7358 
6071 0 3 22.1265 17.7021 12.4275 
6494 0 3 18.5789 19.6298 11.9893 
12081 0 3 22.4431 19.9049 12.7679 
14021 0 3 20.2977 17.6507 13.6879 
20971 0 3 21.2567 17.6467 14.3005 
8633 0 3 20.5158 20.5264 14.724 
2899 0 3 17.1558 21.122 14.5619 
14215 0 3 20.7119 21.9887 13.4222 
25041 0 3 20.5484 19.7048 15.4819 
23049 0 3 17.2766 21.9207 17.4152 
8322 0 3 22.3786 22.4638 17.716 
3771 0 3 17.5988 20.2405 19.5732 
549 0 3 17.0953 18.3461 22.0154 
18556 0 3 21.0542 17.0837 21.4879 
4704 0 3 17.1243 19.5037 23.3704 
18628 0 3 19.3399 19.3958 23.3618 
10798 0 3 19.5668 18.8519 26.3694 
7535 0 3 19.2144 20.4347 26.8884 
4949 0 3 21.8827 21.5316 27.3212 
19394 0 3 18.5204 21.45 29.0809 
18099 0 3 21.5799 20.8935 30.9225 
8454 0 3 20.5757 18.8175 31.8677 
3042 0 3 22.0305 21.461 31.9337 
20787 0 3 18.7792 26.0091 4.31319 
19087 0 3 17.2821 25.7056 4.98976 
3920 0 3 17.5328 27.2546 6.05207 
5415 0 3 18.7348 27.086 6.28759 
23540 0 3 20.4307 27.8352 7.02945 
26100 0 3 21.7282 25.9036 8.29225 
5930 0 3 20.004 26.8507 10.8205 
11360 0 3 22.2857 27.7868 11.2644 
26234 0 3 19.7544 24.6656 14.4054 
20321 0 3 21.0303 27.2578 14.4091 
18158 0 3 21.9146 25.7621 18.723 
8543 0 3 18.0174 23.7815 21.0198 
8535 0 3 20.6304 23.1168 31.2241 
14049 0 3 18.4153 27.5758 31.539 
14716 0 3 21.7859 28.5314 1.80164 
13947 0 3 20.4876 32.5879 2.13305 
4416 0 3 20.6612 32.6953 0.954401 
19776 0 3 21.441 30.3019 2.44672 
19590 0 3 22.3416 30.9674 2.962 
11633 0 3 17.7965 31.8866 2.68394 
21293 0 3 21.423 28.933 5.5627 
6792 0 3 18.7632 30.0076 6.46296 
1820 0 3 21.6306 32.4628 7.02603 
4081 0 3 21.4218 30.0664 10.3135 
2966 0 3 17.0153 32.864 9.90213 
18054 0 3 21.9961 32.8837 10.5146 
17233 0 3 20.5216 28.0366 13.1308 
13472 0 3 21.9416 28.7657 11.9857 
12824 0 3 20.8233 32.0506 13.3457 
18948 0 3 20.6735 31.2088 14.008 
4992 0 3 17.4575 33.0104 13.8098 
21654 0 3 18.5965 31.4316 16.6725 
20830 0 3 20.8289 30.8575 16.6099 
23341 0 3 19.2019 33.3111 15.613 
20492 0 3 21.4125 31.4816 17.6625 
6390 0 3 22.1085 30.4531 21.9225 
23398 0 3 17.4649 29.5121 22.7173 
23822 0 3 22.393 30.2045 25.8501 
10595 0 3 20.7883 32.6985 26.837 
14374 0 3 18.7891 33.2004 28.6215 
4687 0 3 18.8173 29.9464 30.5747 
24642 0 3 19.227 33.0428 32.3732 
26572 0 3 27.9353 3.86381 1.35452 
11768 0 3 26.827 1.04081 2.52208 
16172 0 3 23.7216 3.1816 2.63304 
18459 0 3 24.8206 3.43715 5.52269 
20361 0 3 24.058 5.09099 5.91596 
2392 0 3 26.6082 1.90475 6.43295 
25549 0 3 24.4275 4.45563 7.77836 
10588 0 3 22.6632 3.53813 8.08291 
16811 0 3 26.6028 3.38272 9.18073 
1469 0 3 24.0916 4.30793 9.0092 
15703 0 3 26.6889 1.40907 10.3585 
10178 0 3 22.7447 2.22442 12.3773 
23325 0 3 25.2867 1.57463 11.673 
8415 0 3 24.3325 3.24033 12.229 
10429 0 3 22.7497 0.804308 14.5871 
499 0 3 26.9277 1.79722 14.049 
23098 0 3 27.1727 2.15868 14.9679 
10600 0 3 27.7881 4.9065 15.7103 
14390 0 3 27.3324 5.46215 18.6739 
6495 0 3 27.2931 5.97085 17.6206 
9673 0 3 27.0289 2.1584 20.7305 
21143 0 3 26.3216 3.43178 26.8656 
9896 0 3 26.7153 3.58919 31.7452 
22520 0 3 23.1108 4.75326 32.7751 
5787 0 3 25.4561 8.79372 2.62714 
3223 0 3 25.5196 7.43074 6.60571 
10493 0 3 26.322 9.72552 7.80823 
5914 0 3 25.604 6.10104 10.4605 
21508 0 3 27.2046 11.0885 11.4767 
15572 0 3 25.0096 10.6973 17.6029 
2202 0 3 24.5029 6.35678 19.9393 
10927 0 3 24.8907 9.54663 19.1063 
1227 0 3 27.8166 8.89754 19.6305 
15327 0 3 24.8658 10.8372 19.2876 
5452 0 3 23.0271 6.61487 21.7899 
11233 0 3 24.8082 6.0808 21.786 
13516 0 3 27.4598 6.56045 21.5214 
20781 0 3 22.7661 10.9082 21.2775 
20622 0 3 26.3738 9.9225 23.5532 
23332 0 3 27.7085 6.38917 25.2632 
17017 0 3 25.4163 10.3073 25.6408 
15053 0 3 24.5989 10.2065 26.2966 
11932 0 3 26.246 7.30676 28.452 
9946 0 3 23.6594 10.4917 28.0752 
12233 0 3 25.7574 11.4995 28.6542 
5399 0 3 26.6667 6.83947 31.715 
15057 0 3 25.3888 16.7957 2.93709 
12088 0 3 24.9164 13.7537 5.15909 
1933 0 3 26.8587 16.8816 5.07524 
10797 0 3 27.3033 12.868 13.3487 
7702 0 3 22.8802 14.942 11.632 
5736 0 3 24.987 14.3442 11.6103 
17894 0 3 25.7366 11.9818 15.1273 
13882 0 3 22.9574 13.3725 13.7415 
6897 0 3 26.1031 13.6593 16.7309 
918 0 3 25.7526 16.8519 21.6259 
10507 0 3 26.5641 14.0772 22.9705 
11842 0 3 24.2515 11.5689 25.8977 
22851 0 3 24.1439 13.4788 27.3134 
22386 0 3 27.1021 15.944 27.4278 
6384 0 3 26.8531 11.8966 28.0033 
25058 0 3 27.6848 16.5533 28.6811 
10422 0 3 24.6999 14.3182 30.7933 
5404 0 3 25.5366 11.7781 32.224 
21841 0 3 23.3251 13.6965 31.6189 
8371 0 3 26.528 14.8334 31.681 
377 0 3 23.0815 17.4616 2.12922 
20580 0 3 27.7986 19.1006 1.03089 
24281 0 3 22.7977 21.9874 1.88202 
20998 0 3 23.977 20.1095 5.70777 
17611 0 3 22.8318 21.4707 4.68073 
26598 0 3 25.5262 20.9222 6.2911 
24821 0 3 27.4586 21.2977 6.17428 
24421 0 3 24.8476 18.4601 9.02278 
3712 0 3 25.4724 18.0916 11.2199 
12528 0 3 22.5655 20.282 11.5065 
9937 0 3 24.0728 22.3216 10.3452 
1179 0 3 25.735 21.1579 10.3298 
6942 0 3 25.0763 19.1401 13.311 
4620 0 3 26.1834 18.044 14.1869 
864 0 3 23.4197 22.2736 15.1746 
22975 0 3 25.058 17.4159 15.8255 
12387 0 3 26.7295 20.5152 15.9107 
17465 0 3 26.059 21.3642 16.6464 
24870 0 3 25.0258 21.7935 16.628 
5813 0 3 24.3153 21.896 18.2631 
2129 0 3 22.7728 17.45 20.4066 
22862 0 3 25.1971 17.9766 19.5145 
15105 0 3 27.768 18.1197 19.5329 
19524 0 3 25.8355 19.3767 19.864 
1220 0 3 24.7427 21.4947 19.9669 
20250 0 3 26.2452 18.7986 22.3905 
2672 0 3 22.9006 19.2159 21.4496 
10912 0 3 24.7909 22.1236 20.8261 
10517 0 3 27.0502 22.1891 21.4641 
2240 0 3 26.8464 19.7687 23.8768 
6935 0 3 27.1125 20.7498 24.3102 
7418 0 3 26.2146 17.9638 27.6124 
4644 0 3 22.58 18.3091 28.0443 
5188 0 3 23.3499 20.6402 28.5781 
18319 0 3 25.3603 18.3647 31.3218 
9893 0 3 26.0919 17.609 31.4966 
15290 0 3 23.3792 18.578 31.7588 
22117 0 3 24.4396 20.1052 32.7558 
16702 0 3 27.8014 21.1928 33.0423 
22683 0 3 25.6384 25.5113 4.06069 
26720 0 3 25.9081 23.4218 5.13951 
21485 0 3 26.2975 24.5284 4.96397 
17790 0 3 22.8177 26.5469 5.78489 
12212 0 3 27.0762 26.52 5.18994 
19511 0 3 23.2386 23.8301 6.74668 
15519 0 3 27.3883 24.3314 7.25961 
13374 0 3 23.923 23.55 9.33605 
9624 0 3 24.9545 23.6245 9.79052 
19395 0 3 26.6833 23.0207 9.83049 
14330 0 3 23.9491 26.0594 11.491 
16953 0 3 24.6183 27.3449 9.99523 
12940 0 3 27.2823 26.1918 10.5726 
11646 0 3 24.3185 23.9807 12.6643 
19062 0 3 26.7027 25.8737 12.102 
18379 0 3 27.656 24.3444 13.7739 
5445 0 3 23.2347 24.1793 16.3236 
19671 0 3 26.8237 23.1716 18.4776 
16844 0 3 27.661 25.9676 17.425 
8711 0 3 25.1997 24.4851 19.6838 
3959 0 3 24.6886 25.4267 21.7156 
7416 0 3 27.0915 27.485 21.3328 
10926 0 3 24.2267 26.4687 23.9725 
21722 0 3 22.7005 26.323 23.9634 
16707 0 3 27.5024 23.336 25.1459 
23405 0 3 23.0087 27.4236 25.7483 
23499 0 3 23.8141 26.4472 26.8013 
11471 0 3 23.6544 24.319 28.5096 
1467 0 3 24.2526 27.3777 29.4796 
7963 0 3 23.8703 25.1378 30.49 
26878 0 3 27.624 26.0524 31.2693 
4859 0 3 27.4486 29.5909 0.929018 
9891 0 3 23.2584 30.4386 0.970539 
23675 0 3 24.2046 32.3642 0.970672 
8341 0 3 23.385 28.0992 4.02548 
23212 0 3 26.7608 28.5949 3.62591 
4221 0 3 25.4214 30.6059 2.74973 
15432 0 3 26.9029 32.87 4.07227 
23671 0 3 26.6612 28.5263 5.88681 
20269 0 3 26.6303 33.2499 5.02283 
13739 0 3 27.1419 32.3254 5.16667 
8842 0 3 25.0187 30.1076 8.32927 
9625 0 3 23.039 30.6998 10.1121 
17620 0 3 27.082 32.4897 10.7633 
1387 0 3 24.8475 31.777 14.9891 
2676 0 3 27.3234 33.2781 16.2944 
3671 0 3 23.6405 32.277 18.6181 
17603 0 3 26.5898 31.7778 17.1913 
25345 0 3 25.9065 28.1461 19.9808 
18020 0 3 25.819 30.0524 19.7427 
127 0 3 25.4635 28.8366 21.6972 
10803 0 3 25.3802 28.9356 20.6984 
12895 0 3 23.5032 29.2406 23.1022 
13294 0 3 26.3799 32.4966 24.2002 
26376 0 3 24.2707 28.7133 25.1646 
4947 0 3 25.4891 28.017 26.1054 
13735 0 3 25.6518 28.0018 24.9426 
1809 0 3 27.2707 33.1165 25.0993 
11953 0 3 24.989 29.8415 27.5932 
3569 0 3 23.6037 28.7793 31.2812 
6810 0 3 22.9081 33.1523 30.2395 
19407 0 3 33.0975 1.95253 2.35619 
23782 0 3 30.4906 2.96755 1.47324 
9811 0 3 32.7245 5.72251 2.27591 
26397 0 3 31.7827 3.7503 4.55902 
13389 0 3 31.31 4.39535 5.10311 
19350 0 3 30.7817 1.43717 11.5125 
1606 0 3 30.6447 4.39942 11.7794 
23293 0 3 30.0423 3.84976 14.1175 
26250 0 3 31.5753 3.31489 15.3511 
5213 0 3 31.1751 5.68544 15.5123 
15998 0 3 31.0601 1.67147 18.0859 
16699 0 3 31.6677 2.51149 19.0088 
459 0 3 30.916 4.68721 20.0851 
24192 0 3 28.0224 3.57413 21.9325 
20615 0 3 31.8712 5.90596 23.3104 
11025 0 3 28.9749 5.49039 25.0594 
15052 0 3 29.9406 2.21035 27.4108 
3613 0 3 28.4944 2.32762 29.4276 
16137 0 3 30.6286 0.795705 29.8092 
732 0 3 32.0975 2.07961 30.6411 
24105 0 3 32.032 9.63339 1.17664 
18568 0 3 32.735 7.32676 2.97781 
97 0 3 32.6397 8.96731 3.94667 
20371 0 3 30.9525 8.82141 4.50451 
16197 0 3 33.3011 9.81836 6.01181 
8408 0 3 28.761 7.77427 7.28118 
11463 0 3 32.3352 10.8166 8.89257 
24430 0 3 29.5523 6.82052 9.89067 
8172 0 3 32.3722 7.26307 12.1924 
17292 0 3 30.221 10.3373 12.8671 
16444 0 3 31.9841 10.2904 15.1246 
18472 0 3 32.3863 7.5152 15.3769 
22130 0 3 33.2535 6.20925 16.2665 
10374 0 3 29.055 7.58017 18.5375 
5886 0 3 30.8822 7.59674 18.7617 
16724 0 3 33.047 8.50212 17.5072 
7122 0 3 30.9969 10.1874 17.1353 
26622 0 3 32.9506 8.4311 19.0612 
10977 0 3 29.5593 6.41184 21.7329 
24558 0 3 28.5067 11.0942 21.6147 
9620 0 3 31.5502 9.90015 21.9318 
23890 0 3 32.9066 11.3976 20.9823 
10125 0 3 28.7759 8.80617 23.2754 
8353 0 3 27.9692 8.21779 24.2085 
6566 0 3 32.1465 8.54403 23.1046 
227 0 3 32.3925 6.2889 25.2303 
21390 0 3 31.5672 8.46342 25.0951 
18657 0 3 28.1372 8.09941 26.1569 
25755 0 3 29.688 11.3755 26.3841 
373 0 3 31.9533 11.3055 26.9077 
111 0 3 31.3653 10.0244 28.3541 
8736 0 3 30.9521 10.4568 30.374 
23604 0 3 33.0769 10.4325 31.1729 
12335 0 3 28.8622 11.4473 31.6862 
9387 0 3 28.1971 15.3811 2.15512 
20251 0 3 33.3438 12.3885 3.08816 
3076 0 3 32.1215 15.0747 7.71984 
8816 0 3 28.9456 15.0312 9.67607 
17484 0 3 31.8714 14.2429 8.70639 
16517 0 3 28.9865 13.6273 11.9428 
20405 0 3 29.744 14.7478 14.1959 
20396 0 3 28.845 12.7332 20.0586 
12207 0 3 33.2698 12.1625 20.2945 
4079 0 3 33.24 14.4177 20.2237 
24550 0 3 31.6168 13.0678 22.3551 
5043 0 3 30.6669 15.4484 20.8777 
2849 0 3 32.3865 14.1427 23.7347 
20888 0 3 30.0544 14.0807 25.5541 
17480 0 3 28.0808 15.7081 26.6893 
24434 0 3 29.565 11.8268 29.1684 
25334 0 3 29.4496 15.7485 29.6631 
5025 0 3 32.3709 14.2043 30.7459 
23153 0 3 31.8223 11.7254 32.2535 
18636 0 3 30.2584 16.234 32.1553 
26937 0 3 31.7602 17.8238 2.43573 
23594 0 3 28.5644 17.9147 7.57195 
26440 0 3 31.4041 18.7741 6.5503 
15010 0 3 31.0805 17.3545 9.34768 
12538 0 3 30.3209 18.5677 9.2454 
20921 0 3 28.0409 21.3927 8.84845 
20960 0 3 31.9566 19.053 12.2627 
10114 0 3 28.8933 22.021 12.8453 
5925 0 3 31.1789 17.3956 15.141 
1503 0 3 31.9663 19.2972 14.5439 
20633 0 3 28.7654 21.7936 14.0426 
24910 0 3 29.5946 18.899 15.8591 
3598 0 3 29.9947 21.0582 18.4934 
6409 0 3 32.9197 18.8809 21.3464 
24775 0 3 29.3948 22.1612 22.874 
19892 0 3 31.5865 22.1647 24.5291 
7641 0 3 29.2944 20.833 29.3932 
2008 0 3 29.242 17.8758 31.1127 
13464 0 3 28.0278 19.3977 30.6742 
24908 0 3 32.4006 26.9293 5.33965 
8141 0 3 29.3809 22.9779 8.54617 
15182 0 3 32.3344 24.2751 8.98988 
9025 0 3 31.3296 27.0251 9.61243 
9584 0 3 30.4621 24.226 10.0265 
9072 0 3 32.0982 24.8683 9.87697 
18109 0 3 32.0194 24.8624 13.2007 
26123 0 3 33.3797 26.6369 14.8178 
24260 0 3 28.0196 22.7214 15.2125 
13650 0 3 32.8293 24.028 16.6649 
22391 0 3 29.8907 27.3228 16.5363 
21197 0 3 31.9094 27.4761 16.2472 
7764 0 3 29.8614 24.5208 17.7242 
26389 0 3 28.2746 24.8035 18.8904 
12430 0 3 29.953 25.215 19.9754 
16192 0 3 32.3082 22.5406 21.3783 
2381 0 3 28.2359 24.7303 21.7333 
35 0 3 31.9075 24.9722 22.233 
8339 0 3 28.9452 26.121 22.8585 
19984 0 3 28.825 23.3465 25.5425 
19218 0 3 29.114 24.8259 25.6486 
13252 0 3 28.1097 22.4939 27.8156 
22800 0 3 30.4841 22.9862 28.0482 
8207 0 3 32.917 27.2046 27.9413 
19001 0 3 30.9612 24.2793 30.0348 
14712 0 3 32.7826 23.7692 30.1417 
22831 0 3 32.1217 27.0164 29.7776 