LAMMPS (3 Mar 2020)
OMP_NUM_THREADS environment is not set. Defaulting to 1 thread. (src/comm.cpp:94)
  using 1 OpenMP thread(s) per MPI task
Reading restart file ...
  restart file = 3 Mar 2020, LAMMPS = 3 Mar 2020
  restoring atom style full from restart
  orthogonal box = (0.72066 0.72066 0.72066) to (33.2793 33.2793 33.2793)
  6 by 6 by 6 MPI processor grid
  restoring pair style hybrid/overlay from restart
  restoring bond style fene from restart
  27950 atoms
  8700 bonds
Finding 1-2 1-3 1-4 neighbors ...
  special bond factors lj:   0          1          1         
  special bond factors coul: 0          1          1         
  2 = max # of 1-2 neighbors
  6 = max # of special neighbors
  special bonds CPU = 2.44459 secs
  read_restart CPU = 2.58215 secs
Resetting global fix info from restart file:
  fix style: nvt, fix ID: pt
50 rigid bodies with 950 atoms
Resetting global fix info from restart file:
  fix style: rigid/nvt, fix ID: ri
System init for write_data ...
PPPM initialization ...
  using 12-bit tables for long-range coulomb (src/kspace.cpp:332)
  G vector (1/distance) = 1.17008
  grid = 96 96 96
  stencil order = 5
  estimated absolute RMS force accuracy = 0.000129317
  estimated relative force accuracy = 0.000129317
  using double precision FFTW3
  3d grid and FFT values/proc = 9261 4608
All restart file global fix info was re-assigned
Unused restart file peratom fix info:
  fix style: STORE, fix ID: par_COMPUTE_STORE
WARNING: Neighbor exclusions used with KSpace solver may give inconsistent Coulombic energies (src/neighbor.cpp:486)
Neighbor list info ...
  update every 1 steps, delay 0 steps, check yes
  max neighbors/atom: 2000, page size: 100000
  master list distance cutoff = 2.8
  ghost atom cutoff = 2.8
  binsize = 1.4, bins = 24 24 24
  2 neighbor lists, perpetual/occasional/extra = 2 0 0
  (1) pair lj/cut, perpetual
      attributes: half, newton on
      pair build: half/bin/newton
      stencil: half/bin/3d/newton
      bin: standard
  (2) pair coul/long, perpetual, skip from (1)
      attributes: half, newton on
      pair build: skip
      stencil: none
      bin: none
PPPM initialization ...
  using 12-bit tables for long-range coulomb (src/kspace.cpp:332)
  G vector (1/distance) = 1.17008
  grid = 96 96 96
  stencil order = 5
  estimated absolute RMS force accuracy = 0.000129317
  estimated relative force accuracy = 0.000129317
  using double precision FFTW3
  3d grid and FFT values/proc = 9261 4608
WARNING: Neighbor exclusions used with KSpace solver may give inconsistent Coulombic energies (src/neighbor.cpp:486)
Neighbor list info ...
  update every 1 steps, delay 0 steps, check yes
  max neighbors/atom: 2000, page size: 100000
  master list distance cutoff = 2.8
  ghost atom cutoff = 2.8
  binsize = 1.4, bins = 24 24 24
  2 neighbor lists, perpetual/occasional/extra = 2 0 0
  (1) pair lj/cut, perpetual
      attributes: half, newton on
      pair build: half/bin/newton
      stencil: half/bin/3d/newton
      bin: standard
  (2) pair coul/long, perpetual, skip from (1)
      attributes: half, newton on
      pair build: skip
      stencil: none
      bin: none
Setting up Verlet run ...
  Unit style    : lj
  Current step  : 12000000
  Time step     : 0.005
Per MPI rank memory allocation (min/avg/max) = 10.25 | 10.28 | 10.42 Mbytes
Step Temp Press Volume 
12000000   0.80152397  0.097989466      34514.4 
12010000   0.80070551   -0.2005936      34514.4 
12020000    0.7975407  -0.17532289      34514.4 
12030000   0.79464394  -0.19298292      34514.4 
12040000   0.80337356   -0.1338562      34514.4 
12050000   0.80306653  -0.15135594      34514.4 
12060000   0.79751553   -0.2078988      34514.4 
12070000   0.79898452  -0.22128893      34514.4 
12080000   0.80041941  -0.19729214      34514.4 
12090000   0.79745523   -0.1588531      34514.4 
12100000   0.79940557  -0.20085756      34514.4 
12110000   0.80156819  -0.18758455      34514.4 
12120000   0.79928596  -0.17234224      34514.4 
12130000   0.79835414  -0.13196522      34514.4 
12140000   0.79043151  -0.13068031      34514.4 
12150000   0.79849843  -0.17075854      34514.4 
12160000   0.80372603  -0.19968303      34514.4 
12170000   0.79892609  -0.17257602      34514.4 
12180000   0.79137932  -0.16262694      34514.4 
12190000   0.80095053  -0.20489183      34514.4 
12200000   0.79918268  -0.23091288      34514.4 
12210000   0.80231689   -0.2046406      34514.4 
12220000   0.80331053  -0.22269843      34514.4 
12230000   0.80158656  -0.22337003      34514.4 
12240000   0.80729989  -0.15635293      34514.4 
12250000   0.80102798  -0.25401048      34514.4 
12260000   0.80268393  -0.18591349      34514.4 
12270000   0.79555518  -0.14638801      34514.4 
12280000   0.80266923  -0.10455209      34514.4 
12290000   0.80262248  -0.16745676      34514.4 
12300000   0.79016701  -0.14481219      34514.4 
12310000   0.79121216  -0.19854154      34514.4 
12320000    0.8004922 -0.099032655      34514.4 
12330000   0.80415761   -0.2452872      34514.4 
12340000   0.80810078  -0.16609778      34514.4 
12350000   0.80145778  -0.14419175      34514.4 
12360000   0.80293479  -0.15477219      34514.4 
12370000   0.79510343  -0.15461265      34514.4 
12380000   0.80203486  -0.16060511      34514.4 
12390000   0.79802937  -0.17635071      34514.4 
12400000   0.79885541  -0.19415783      34514.4 
12410000   0.79922863 -0.094825443      34514.4 
12420000   0.79722933  -0.11272021      34514.4 
12430000   0.79753336  -0.17445631      34514.4 
12440000   0.79875346  -0.13021945      34514.4 
12450000   0.79788462  -0.16487348      34514.4 
12460000    0.7937734  -0.19129615      34514.4 
12470000   0.79986921  -0.23661959      34514.4 
12480000   0.80296494  -0.19584808      34514.4 
12490000   0.80134134  -0.13623289      34514.4 
12500000   0.80939045   -0.1877982      34514.4 
12510000    0.7983047  -0.18139344      34514.4 
12520000    0.7889529  -0.21246855      34514.4 
12530000   0.79894207  -0.22295921      34514.4 
12540000   0.80031029  -0.15304393      34514.4 
12550000   0.79962617  -0.16740379      34514.4 
12560000   0.80682598  -0.13140731      34514.4 
12570000   0.80615866  -0.23816092      34514.4 
12580000   0.79385334  -0.24145227      34514.4 
12590000    0.8020724  -0.19101971      34514.4 
12600000    0.7951902  -0.14106337      34514.4 
12610000   0.80339525  -0.15348934      34514.4 
12620000   0.80496808  -0.17487119      34514.4 
12630000    0.7981541  -0.16669927      34514.4 
12640000    0.7967733  -0.10470754      34514.4 
12650000   0.79879563  -0.17687927      34514.4 
12660000   0.80203417  -0.17554652      34514.4 
12670000   0.79604083   -0.2487688      34514.4 
12680000   0.80570852   -0.1461122      34514.4 
12690000   0.79093602  -0.15984657      34514.4 
12700000   0.79895118   -0.1592422      34514.4 
12710000   0.80753183  -0.21530951      34514.4 
12720000   0.79846568  -0.16995181      34514.4 
12730000   0.79528893  -0.19455313      34514.4 
12740000    0.8038145  -0.17179873      34514.4 
12750000   0.80478471  -0.18766007      34514.4 
12760000   0.80699778  -0.12843744      34514.4 
12770000   0.79510778  -0.14189234      34514.4 
12780000    0.7949502  -0.15766598      34514.4 
12790000   0.79919178  -0.20164682      34514.4 
12800000   0.80105838  -0.21286842      34514.4 
12810000   0.80361253  -0.16004449      34514.4 
12820000   0.79904455  -0.17630282      34514.4 
12830000   0.79616594  -0.15073586      34514.4 
12840000   0.79560596  -0.17067293      34514.4 
12850000   0.79430551  -0.17009508      34514.4 
12860000   0.79816708  -0.14908762      34514.4 
12870000   0.80869075  -0.19724587      34514.4 
12880000   0.79186239  -0.16909873      34514.4 
12890000   0.79672328  -0.22429206      34514.4 
12900000   0.79416973  -0.13282882      34514.4 
12910000   0.80303006  -0.14237469      34514.4 
12920000   0.79771037  -0.21154754      34514.4 
12930000   0.80052681  -0.15533493      34514.4 
12940000   0.80337791  -0.14026417      34514.4 
12950000   0.80174644  -0.16417775      34514.4 
12960000   0.80574296  -0.24313458      34514.4 
12970000   0.79741464  -0.12701742      34514.4 
12980000   0.80558929  -0.26382801      34514.4 
12990000   0.79841484  -0.16124261      34514.4 
13000000   0.80790003  -0.19022897      34514.4 
Loop time of 9642.85 on 216 procs for 1000000 steps with 27950 atoms

Performance: 44800.037 tau/day, 103.704 timesteps/s
99.9% CPU use with 216 MPI tasks x 1 OpenMP threads

MPI task timing breakdown:
Section |  min time  |  avg time  |  max time  |%varavg| %total
---------------------------------------------------------------
Pair    | 100.56     | 126.18     | 219.83     | 181.8 |  1.31
Bond    | 1.412      | 2.0144     | 2.7328     |  19.4 |  0.02
Kspace  | 8575.2     | 8717.3     | 8797.9     |  48.2 | 90.40
Neigh   | 105.26     | 110.88     | 117.76     |  26.0 |  1.15
Comm    | 216.48     | 303.07     | 391.52     | 193.1 |  3.14
Output  | 0.011652   | 0.014884   | 0.029043   |   1.4 |  0.00
Modify  | 230.95     | 289.48     | 352.8      | 141.9 |  3.00
Other   |            | 93.93      |            |       |  0.97

Nlocal:    129.398 ave 176 max 114 min
Histogram: 34 71 54 29 10 5 4 5 2 2
Nghost:    955.981 ave 1054 max 888 min
Histogram: 5 20 37 53 37 32 18 8 4 2
Neighs:    4734.18 ave 8100 max 3694 min
Histogram: 24 84 62 21 8 4 6 5 1 1

Total # of neighbors = 1022582
Ave neighs/atom = 36.5861
Ave special neighs/atom = 0.62254
Neighbor list builds = 134503
Dangerous builds = 0
PPPM initialization ...
  using 12-bit tables for long-range coulomb (src/kspace.cpp:332)
  G vector (1/distance) = 1.17008
  grid = 96 96 96
  stencil order = 5
  estimated absolute RMS force accuracy = 0.000129317
  estimated relative force accuracy = 0.000129317
  using double precision FFTW3
  3d grid and FFT values/proc = 9261 4608
WARNING: Neighbor exclusions used with KSpace solver may give inconsistent Coulombic energies (src/neighbor.cpp:486)
Neighbor list info ...
  update every 1 steps, delay 0 steps, check yes
  max neighbors/atom: 2000, page size: 100000
  master list distance cutoff = 2.8
  ghost atom cutoff = 2.8
  binsize = 1.4, bins = 24 24 24
  12 neighbor lists, perpetual/occasional/extra = 2 10 0
  (1) pair lj/cut, perpetual
      attributes: half, newton on
      pair build: half/bin/newton
      stencil: half/bin/3d/newton
      bin: standard
  (2) pair coul/long, perpetual, skip from (1)
      attributes: half, newton on
      pair build: skip
      stencil: none
      bin: none
  (3) compute rdf, occasional, copy from (1)
      attributes: half, newton on
      pair build: copy
      stencil: none
      bin: none
  (4) compute rdf, occasional, copy from (1)
      attributes: half, newton on
      pair build: copy
      stencil: none
      bin: none
  (5) compute rdf, occasional, copy from (1)
      attributes: half, newton on
      pair build: copy
      stencil: none
      bin: none
  (6) compute rdf, occasional, copy from (1)
      attributes: half, newton on
      pair build: copy
      stencil: none
      bin: none
  (7) compute rdf, occasional, copy from (1)
      attributes: half, newton on
      pair build: copy
      stencil: none
      bin: none
  (8) compute rdf, occasional, copy from (1)
      attributes: half, newton on
      pair build: copy
      stencil: none
      bin: none
  (9) compute rdf, occasional, copy from (1)
      attributes: half, newton on
      pair build: copy
      stencil: none
      bin: none
  (10) compute rdf, occasional, copy from (1)
      attributes: half, newton on
      pair build: copy
      stencil: none
      bin: none
  (11) compute rdf, occasional, copy from (1)
      attributes: half, newton on
      pair build: copy
      stencil: none
      bin: none
  (12) compute rdf, occasional, copy from (1)
      attributes: half, newton on
      pair build: copy
      stencil: none
      bin: none
Setting up Verlet run ...
  Unit style    : lj
  Current step  : 0
  Time step     : 0.005
WARNING: One or more chunks do not contain all atoms in molecule (src/compute_chunk_atom.cpp:1163)
Per MPI rank memory allocation (min/avg/max) = 18.8 | 19.32 | 19.97 Mbytes
Step Temp Press PotEng KinEng E_pair E_bond TotEng 
       0   0.80790003  -0.18167196    1.7698118    1.1749526   -4.6419063    6.4117181    2.9447643 
   10000   0.80245431  -0.12094011    1.7777651    1.1670327   -4.6353006    6.4130656    2.9447978 
   20000   0.80528784  -0.15219811    1.7697926    1.1711536   -4.6441123    6.4139049    2.9409462 
   30000   0.79717271  -0.21787023    1.7692643    1.1593515   -4.6449247    6.4141891    2.9286159 
   40000   0.79798731  -0.17212136    1.7744577    1.1605362   -4.6403404    6.4147981    2.9349939 
   50000   0.79877143  -0.15764014    1.7765793    1.1616766   -4.6373073    6.4138866    2.9382559 
   60000   0.79989209  -0.14031746    1.7801339    1.1633064   -4.6331439    6.4132778    2.9434403 
   70000   0.79137601  -0.18677659    1.7756908    1.1509212   -4.6387361    6.4144269    2.9266121 
   80000    0.8036922   -0.1696987    1.7712214     1.168833   -4.6417951    6.4130165    2.9400544 
   90000   0.80577416  -0.17401508    1.7722466    1.1718609   -4.6424487    6.4146953    2.9441075 
  100000   0.79536451  -0.16034512    1.7743792    1.1567218   -4.6399449    6.4143241     2.931101 
  110000   0.79676453  -0.15331049    1.7693794    1.1587579   -4.6435834    6.4129627    2.9281372 
  120000   0.80321614  -0.23057605     1.763897    1.1681406   -4.6501496    6.4140466    2.9320376 
  130000   0.80259117  -0.18577848    1.7592963    1.1672317   -4.6523466    6.4116429     2.926528 
  140000   0.79789414  -0.22037722    1.7754386    1.1604007   -4.6379497    6.4133883    2.9358393 
  150000   0.79557326  -0.14639379    1.7751993    1.1570254   -4.6415357    6.4167351    2.9322247 
  160000   0.79732835  -0.21513669    1.7649583    1.1595779   -4.6470906    6.4120489    2.9245362 
  170000   0.79847378  -0.13636427    1.7706684    1.1612437   -4.6420269    6.4126953    2.9319121 
  180000   0.80763443  -0.13071413    1.7725464    1.1745663   -4.6415394    6.4140858    2.9471127 
  190000   0.79254461  -0.15808731    1.7704918    1.1526207   -4.6463584    6.4168502    2.9231126 
  200000   0.79831639  -0.17176186    1.7703284    1.1610148   -4.6468099    6.4171383    2.9313432 
  210000   0.80635607  -0.22888569    1.7628124    1.1727071   -4.6498066    6.4126189    2.9355195 
  220000   0.80249252  -0.21993661     1.762556    1.1670883   -4.6517773    6.4143333    2.9296442 
  230000   0.80017267  -0.21947394    1.7629176    1.1637144   -4.6518227    6.4147403     2.926632 
  240000    0.8013296  -0.20911342    1.7635151     1.165397   -4.6520379     6.415553    2.9289121 
  250000   0.79973442  -0.19092956    1.7652715    1.1630771   -4.6453582    6.4106297    2.9283485 
  260000   0.80613867   -0.1740105    1.7644031     1.172391   -4.6468944    6.4112975    2.9367941 
  270000   0.80033392  -0.17833161    1.7673781     1.163949   -4.6490765    6.4164546     2.931327 
  280000   0.80335027    -0.170644     1.785399    1.1683357   -4.6283363    6.4137354    2.9537348 
  290000   0.80004019  -0.16524419    1.7629113    1.1635218   -4.6495406    6.4124519     2.926433 
  300000   0.79274299  -0.21037663    1.7696028    1.1529092   -4.6439766    6.4135794     2.922512 
  310000   0.79509716  -0.22071211    1.7679512     1.156333   -4.6445984    6.4125496    2.9242842 
  320000   0.80293238  -0.19929596    1.7711745     1.167728   -4.6411717    6.4123462    2.9389025 
  330000   0.79857436  -0.22242418    1.7663353      1.16139    -4.645175    6.4115103    2.9277253 
  340000    0.8011006   -0.1718891    1.7668485     1.165064   -4.6461112    6.4129597    2.9319125 
  350000    0.8014583  -0.14745463    1.7714664    1.1655842   -4.6451862    6.4166526    2.9370506 
  360000   0.80114132  -0.19927867    1.7668141    1.1651232   -4.6520499     6.418864    2.9319373 
  370000   0.79430691  -0.16772724    1.7696419    1.1551837   -4.6457317    6.4153737    2.9248256 
  380000   0.79844652  -0.22456886    1.7663808    1.1612041   -4.6481042     6.414485    2.9275848 
  390000   0.79352114  -0.18750069    1.7675654    1.1540409   -4.6433159    6.4108813    2.9216063 
  400000    0.7984587  -0.22350488    1.7662957    1.1612218   -4.6490613     6.415357    2.9275175 
  410000   0.80174984  -0.13739617      1.77453    1.1660082   -4.6411688    6.4156988    2.9405382 
  420000   0.79868122  -0.21079468     1.769753    1.1615454   -4.6467604    6.4165134    2.9312984 
  430000   0.79819566  -0.17436126    1.7670713    1.1608392   -4.6448299    6.4119012    2.9279106 
  440000    0.7922687  -0.14325135    1.7705316    1.1522195   -4.6437896    6.4143212    2.9227511 
  450000   0.80046868  -0.23067658    1.7580648    1.1641449   -4.6570426    6.4151074    2.9222098 
  460000   0.80870625  -0.13722291    1.7719082    1.1761251    -4.642232    6.4141402    2.9480333 
  470000   0.79737538  -0.17203328    1.7673355    1.1596463    -4.647935    6.4152704    2.9269817 
  480000   0.80275292 -0.091700108    1.7676548     1.167467   -4.6452791     6.412934    2.9351218 
  490000   0.80085341  -0.17118667    1.7742651    1.1647045   -4.6447294    6.4189945    2.9389696 
  500000   0.79521289  -0.19545008    1.7771926    1.1565013    -4.637122    6.4143145    2.9336939 
  510000   0.80287756  -0.19938147    1.7638825    1.1676482    -4.649005    6.4128874    2.9315307 
  520000   0.79975515  -0.20391768    1.7653548    1.1631072   -4.6493505    6.4147054    2.9284621 
  530000   0.79745799  -0.13133325    1.7682215    1.1597664    -4.645372    6.4135935    2.9279879 
  540000   0.80616098  -0.11282458    1.7672013    1.1724234   -4.6490378    6.4162392    2.9396247 
  550000   0.80227284  -0.16435377    1.7689652    1.1667688   -4.6467415    6.4157067     2.935734 
  560000   0.79338504  -0.13350428    1.7773253     1.153843   -4.6347538    6.4120792    2.9311683 
  570000   0.79907872  -0.14928072    1.7706029    1.1621235   -4.6468642    6.4174671    2.9327264 
  580000   0.80601702    -0.188797    1.7715064    1.1722141   -4.6427241    6.4142306    2.9437205 
  590000    0.8039661  -0.15915531    1.7802418    1.1692313   -4.6354599    6.4157017    2.9494732 
  600000   0.79375282  -0.18675601     1.767421    1.1543779   -4.6441352    6.4115562    2.9217989 
  610000   0.79983195  -0.13395515    1.7736346    1.1632189   -4.6401938    6.4138284    2.9368535 
  620000   0.80709377  -0.13229751    1.7775803      1.17378    -4.638793    6.4163732    2.9513603 
  630000   0.80077751  -0.19883493    1.7591959    1.1645941     -4.65122    6.4104159      2.92379 
  640000   0.79631053  -0.21079731    1.7710343    1.1580976   -4.6424282    6.4134625    2.9291319 
  650000   0.80588394   -0.1678981    1.7672469    1.1720205   -4.6449292     6.412176    2.9392674 
  660000   0.80100761  -0.20167037    1.7595575    1.1649287   -4.6526935     6.412251    2.9244862 
  670000   0.80422162  -0.17101398    1.7779459    1.1696029   -4.6412512    6.4191971    2.9475488 
  680000   0.80026013  -0.19797503    1.7635002    1.1638416   -4.6501823    6.4136826    2.9273419 
  690000   0.80055999  -0.20020095     1.766289    1.1642777   -4.6481721    6.4144611    2.9305668 
  700000   0.80061357   -0.2334082    1.7683901    1.1643557   -4.6442203    6.4126104    2.9327458 
  710000   0.79625458  -0.16681774    1.7637465    1.1580163   -4.6487355     6.412482    2.9217627 
  720000   0.79933104  -0.17772473    1.7670211    1.1624904   -4.6464871    6.4135082    2.9295115 
  730000   0.80072061  -0.14459616    1.7663013    1.1645113   -4.6503833    6.4166845    2.9308126 
  740000   0.80217861  -0.11992065    1.7727428    1.1666318   -4.6410836    6.4138263    2.9393745 
  750000    0.7975049  -0.18814296    1.7655506    1.1598346   -4.6483783     6.413929    2.9253853 
  760000   0.80514637  -0.16835293    1.7611288    1.1709478   -4.6498202     6.410949    2.9320767 
  770000   0.80326156  -0.22520578    1.7637477    1.1682067   -4.6511634    6.4149111    2.9319544 
  780000   0.79881148  -0.17783188    1.7684179    1.1617348   -4.6465634    6.4149813    2.9301527 
  790000   0.79146641  -0.20014744    1.7646408    1.1510527   -4.6523398    6.4169806    2.9156935 
  800000   0.81146098  -0.15782595    1.7676245    1.1801314   -4.6494912    6.4171157    2.9477559 
  810000   0.79917893  -0.19474297    1.7657266    1.1622692   -4.6465418    6.4122684    2.9279958 
  820000   0.79890929  -0.15311028    1.7716167    1.1618771   -4.6402104    6.4118271    2.9334938 
  830000   0.80634738  -0.17008781    1.7707073    1.1726945   -4.6427688     6.413476    2.9434018 
  840000   0.79937072  -0.17772863    1.7672832    1.1625481   -4.6483098     6.415593    2.9298313 
  850000   0.80582984  -0.14370079    1.7686625    1.1719418   -4.6441244    6.4127869    2.9406044 
  860000   0.79369443  -0.17762971    1.7668308    1.1542929   -4.6473927    6.4142234    2.9211237 
  870000   0.79600209  -0.10136677    1.7688078    1.1576491   -4.6446099    6.4134177    2.9264569 
  880000   0.79952478  -0.16960966    1.7664837    1.1627722   -4.6479333    6.4144169    2.9292559 
  890000   0.79742873  -0.13712297    1.7614368    1.1597239   -4.6489892     6.410426    2.9211607 
  900000   0.79791239  -0.16363874    1.7692485    1.1604273   -4.6458677    6.4151161    2.9296757 
  910000   0.79767561  -0.18417648    1.7694608    1.1600829   -4.6466615    6.4161224    2.9295437 
  920000   0.79740064  -0.22935219    1.7649082     1.159683   -4.6496546    6.4145628    2.9245912 
  930000   0.79649761  -0.11924999    1.7711576    1.1583697   -4.6410525    6.4122101    2.9295273 
  940000   0.80216838   -0.1971888    1.7687214    1.1666169   -4.6432269    6.4119483    2.9353382 
  950000   0.80914442  -0.19166113    1.7674586    1.1767623   -4.6445217    6.4119803    2.9442209 
  960000   0.79166872  -0.21691623    1.7702519    1.1513469   -4.6449765    6.4152284    2.9215988 
  970000   0.80207775  -0.17978009    1.7690417    1.1664851   -4.6459016    6.4149433    2.9355268 
  980000   0.80074972  -0.13111391     1.774004    1.1645537   -4.6423186    6.4163226    2.9385576 
  990000   0.79424684  -0.15481593    1.7661202    1.1550963    -4.647306    6.4134262    2.9212166 
 1000000    0.8036655  -0.21029874    1.7621531    1.1687942   -4.6536609     6.415814    2.9309473 
 1010000   0.79959239  -0.17386567    1.7644235    1.1628705   -4.6469733    6.4113968    2.9272941 
 1020000   0.79575193  -0.16441897    1.7668085    1.1572852   -4.6480454    6.4148539    2.9240938 
 1030000   0.80093125  -0.16201552     1.767463    1.1648177   -4.6472037    6.4146667    2.9322807 
 1040000   0.79863943  -0.18169724    1.7740579    1.1614846   -4.6396893    6.4137472    2.9355425 
 1050000   0.79436462  -0.14704652    1.7730868    1.1552676   -4.6409185    6.4140053    2.9283544 
 1060000   0.80477686  -0.16223677     1.773918    1.1704105   -4.6421213    6.4160393    2.9443284 
 1070000   0.80002562  -0.17286044    1.7644757    1.1635006   -4.6475133     6.411989    2.9279763 
 1080000   0.79123811   -0.1511745    1.7727758    1.1507207   -4.6457282     6.418504    2.9234965 
 1090000   0.80495463  -0.22297581    1.7679583     1.170669   -4.6477183    6.4156766    2.9386273 
 1100000   0.79809309  -0.17253811    1.7695298      1.16069   -4.6434519    6.4129817    2.9302199 
 1110000   0.79568997  -0.19403923    1.7692459    1.1571951   -4.6471648    6.4164107    2.9264411 
 1120000    0.8043434  -0.13798649    1.7652669    1.1697801   -4.6480908    6.4133577     2.935047 
 1130000   0.79680041  -0.21392556    1.7674608    1.1588101   -4.6457996    6.4132605    2.9262709 
 1140000   0.80070882  -0.13233041    1.7706604    1.1644942   -4.6429763    6.4136367    2.9351546 
 1150000   0.79144168  -0.14855206    1.7590188    1.1510167   -4.6546998    6.4137187    2.9100355 
 1160000   0.79478283  -0.15332817    1.7657941    1.1558759   -4.6467603    6.4125544    2.9216699 
 1170000   0.80029194  -0.13723322    1.7735262    1.1638879   -4.6430185    6.4165447    2.9374141 
 1180000    0.8017475  -0.12965208    1.7800451    1.1660048   -4.6368941    6.4169392    2.9460498 
 1190000   0.79470942  -0.15858006    1.7656225    1.1557691   -4.6482183    6.4138408    2.9213916 
 1200000   0.80504338  -0.17254819    1.7637683    1.1707981   -4.6490823    6.4128506    2.9345663 
 1210000   0.80219973  -0.20002827    1.7654755    1.1666625    -4.647241    6.4127165     2.932138 
 1220000   0.80071818  -0.20266834    1.7622534    1.1645078   -4.6506043    6.4128577    2.9267612 
 1230000   0.79935535  -0.22606115     1.764902    1.1625258   -4.6471989    6.4121009    2.9274278 
 1240000   0.80136808  -0.16328006    1.7689952     1.165453   -4.6464227    6.4154179    2.9344482 
 1250000   0.79206704  -0.21420817    1.7719278    1.1519262   -4.6412084    6.4131362     2.923854 
 1260000   0.80273122  -0.16390641    1.7713326    1.1674354   -4.6461197    6.4174524    2.9387681 
 1270000   0.79676474  -0.16491699    1.7653786    1.1587582   -4.6480463    6.4134249    2.9241368 
 1280000   0.80865956  -0.19333871    1.7591053    1.1760572   -4.6531342    6.4122395    2.9351625 
 1290000   0.80079411  -0.25656803     1.767787    1.1646182   -4.6460991    6.4138861    2.9324052 
 1300000    0.8004193  -0.13452658     1.765454    1.1640731   -4.6479128    6.4133668    2.9295272 
 1310000   0.79725888  -0.20385146    1.7643612    1.1594768   -4.6493949     6.413756     2.923838 
 1320000   0.79924484  -0.16432288    1.7685105    1.1623651   -4.6436267    6.4121372    2.9308755 
 1330000    0.7970685  -0.17258441    1.7690894       1.1592   -4.6433266     6.412416    2.9282894 
 1340000   0.79694129   -0.1859128    1.7645061     1.159015    -4.647044    6.4115501    2.9235211 
 1350000   0.80055389  -0.14335966    1.7724387    1.1642689   -4.6399209    6.4123596    2.9367075 
 1360000   0.79345975  -0.13442334    1.7800056    1.1539517   -4.6335465    6.4135521    2.9339572 
 1370000   0.79759822   -0.1301792    1.7741347    1.1599703   -4.6429095    6.4170443    2.9341051 
 1380000   0.80841086  -0.13604149    1.7711474    1.1756955   -4.6433816    6.4145289    2.9468429 
 1390000   0.79357865  -0.17743439    1.7709291    1.1541246   -4.6438169     6.414746    2.9250537 
 1400000   0.80399363  -0.17504959    1.7699194    1.1692714   -4.6445713    6.4144907    2.9391907 
 1410000    0.8005794  -0.18243404    1.7678057     1.164306    -4.644931    6.4127367    2.9321117 
 1420000   0.80116223  -0.19870493    1.7637885    1.1651536   -4.6495474    6.4133359    2.9289421 
 1430000   0.80083496  -0.11950664    1.7746764    1.1646776   -4.6390313    6.4137077     2.939354 
 1440000   0.80123369  -0.19298361    1.7640013    1.1652575   -4.6524903    6.4164916    2.9292589 
 1450000   0.80048924  -0.18115255    1.7632217    1.1641748   -4.6477958    6.4110175    2.9273965 
 1460000   0.80338518  -0.19307099    1.7724266    1.1683865   -4.6421849    6.4146115    2.9408131 
 1470000   0.79838676  -0.16760553    1.7689076    1.1611171   -4.6448768    6.4137844    2.9300248 
 1480000   0.79478138  -0.18697293    1.7661892    1.1558737   -4.6488033    6.4149925    2.9220629 
 1490000   0.80844021  -0.16998767    1.7682458    1.1757382   -4.6460742    6.4143199     2.943984 
 1500000   0.78954492  -0.17327798    1.7676846    1.1482582    -4.647434    6.4151186    2.9159428 
 1510000    0.8003738  -0.12234424    1.7712142     1.164007   -4.6454729    6.4166871    2.9352212 
 1520000   0.79995237  -0.16657846    1.7629389    1.1633941   -4.6469833    6.4099222    2.9263329 
 1530000   0.79554464  -0.15618327    1.7659523    1.1569838   -4.6465645    6.4125168    2.9229361 
 1540000   0.79553031  -0.19802954    1.7710179    1.1569629   -4.6432286    6.4142464    2.9279808 
 1550000   0.79216126  -0.19819702    1.7732017    1.1520632   -4.6447041    6.4179059     2.925265 
 1560000   0.80312829  -0.15826508    1.7697938    1.1680129   -4.6429825    6.4127763    2.9378067 
 1570000   0.80212625   -0.1882992    1.7686631    1.1665556   -4.6451472    6.4138103    2.9352187 
 1580000   0.78678099  -0.14919645    1.7694108    1.1442385   -4.6414552     6.410866    2.9136493 
 1590000   0.79915475  -0.21967377    1.7614736    1.1622341   -4.6540904    6.4155639    2.9237076 
 1600000   0.80801983  -0.26859387    1.7623034    1.1751268    -4.653498    6.4158014    2.9374302 
 1610000   0.80145415  -0.21326903    1.7799115    1.1655781   -4.6375348    6.4174462    2.9454896 
 1620000   0.80654908  -0.19999605    1.7659437    1.1729878   -4.6476896    6.4136333    2.9389315 
 1630000   0.80283494  -0.25327758    1.7593708    1.1675863   -4.6560681    6.4154389    2.9269571 
 1640000   0.79945875  -0.20035296    1.7670956    1.1626762   -4.6467585    6.4138541    2.9297718 
 1650000   0.79645029  -0.13486535    1.7755439    1.1583009   -4.6387089    6.4142528    2.9338448 
 1660000   0.80131233  -0.14852267    1.7731772    1.1653719   -4.6388951    6.4120723     2.938549 
 1670000   0.80113219  -0.16514501    1.7692985    1.1651099   -4.6442574    6.4135559    2.9344084 
 1680000   0.78910084  -0.21210309    1.7651622    1.1476124   -4.6483278      6.41349    2.9127745 
 1690000   0.79552994  -0.19723951    1.7692394    1.1569624   -4.6446549    6.4138943    2.9262018 
 1700000   0.79803179  -0.22844153    1.7737923    1.1606009   -4.6403547    6.4141471    2.9343932 
 1710000   0.80736612  -0.15836154    1.7716975    1.1741761   -4.6411861    6.4128836    2.9458735 
 1720000   0.79129855  -0.13828805    1.7712292    1.1508086   -4.6396648     6.410894    2.9220377 
 1730000   0.79909057  -0.15010932    1.7720551    1.1621407   -4.6439947    6.4160498    2.9341958 
 1740000   0.79760213  -0.21461131    1.7595078     1.159976    -4.656576    6.4160838    2.9194839 
 1750000   0.80401301  -0.20379522    1.7652256    1.1692996   -4.6465257    6.4117513    2.9345252 
 1760000   0.79366466 -0.071348202     1.772703    1.1542497   -4.6376644    6.4103674    2.9269526 
 1770000   0.80062761  -0.20288133    1.7714851    1.1643761   -4.6437373    6.4152224    2.9358612 
 1780000    0.7944223  -0.19610883    1.7665453    1.1553515   -4.6470258    6.4135711    2.9218968 
 1790000   0.80218833  -0.14186056    1.7718912    1.1666459   -4.6411618    6.4130529     2.938537 
 1800000   0.79820199  -0.22341922    1.7587761    1.1608484   -4.6516374    6.4104136    2.9196245 
 1810000   0.80380979  -0.21688823    1.7660356     1.169004   -4.6447581    6.4107938    2.9350397 
 1820000   0.80629181 -0.098176842    1.7791589    1.1726137     -4.63412    6.4132789    2.9517726 
 1830000   0.80593052  -0.17506374     1.770702    1.1720883   -4.6422699    6.4129719    2.9427903 
 1840000   0.80360043   -0.1755626    1.7685043    1.1686995     -4.64738    6.4158843    2.9372039 
 1850000   0.79852545  -0.20613162    1.7678856    1.1613188       -4.647    6.4148856    2.9292044 
 1860000   0.80431579 -0.082027083     1.772469    1.1697399   -4.6391961     6.411665    2.9422089 
 1870000   0.79400488  -0.19647427    1.7687332    1.1547445   -4.6475893    6.4163226    2.9234777 
 1880000   0.79443559  -0.19031531    1.7639117    1.1553708   -4.6460631    6.4099748    2.9192825 
 1890000   0.79751597  -0.10302778    1.7764725    1.1598507   -4.6380181    6.4144906    2.9363233 
 1900000   0.79867769  -0.22079947    1.7645236    1.1615402    -4.648705    6.4132287    2.9260639 
 1910000   0.80032178  -0.19450392    1.7612787    1.1639313    -4.651741    6.4130197      2.92521 
 1920000   0.80923224  -0.18338386    1.7724132      1.17689   -4.6439466    6.4163599    2.9493033 
 1930000    0.7941994  -0.15769459    1.7750161    1.1550273   -4.6394811    6.4144972    2.9300434 
 1940000   0.80176523  -0.14292421    1.7678384    1.1660306   -4.6453003    6.4131387    2.9338689 
 1950000   0.79195362   -0.1927463    1.7592742    1.1517612   -4.6519328     6.411207    2.9110354 
 1960000   0.80134797  -0.21052098    1.7707122    1.1654237   -4.6465318     6.417244    2.9361359 
 1970000   0.80181998   -0.1681134    1.7736384    1.1661102    -4.640995    6.4146334    2.9397485 
 1980000   0.80452067   -0.1153433    1.7815529    1.1700379   -4.6324923    6.4140452    2.9515908 
 1990000   0.80251353   -0.1132975    1.7789287    1.1671188   -4.6362383    6.4151669    2.9460475 
 2000000    0.7983986  -0.17170282    1.7703934    1.1611344   -4.6434655    6.4138589    2.9315277 
 2010000   0.80495728  -0.15016584    1.7641966    1.1706728   -4.6480648    6.4122614    2.9348694 
 2020000   0.80422439  -0.21969785    1.7659617     1.169607   -4.6461315    6.4120933    2.9355687 
 2030000   0.80717329  -0.14048603    1.7728068    1.1738957   -4.6423392     6.415146    2.9467024 
 2040000   0.79881042  -0.17677252     1.772415    1.1617333   -4.6419187    6.4143337    2.9341483 
 2050000   0.79982295  -0.16139087    1.7768701    1.1632058   -4.6360031    6.4128732    2.9400759 
 2060000    0.7951518  -0.14406631    1.7696409    1.1564125   -4.6409669    6.4106078    2.9260533 
 2070000   0.79814457   -0.2197033    1.7686508    1.1607649   -4.6440663    6.4127172    2.9294158 
 2080000   0.80498291   -0.2240937     1.764125    1.1707101   -4.6515898    6.4157148    2.9348351 
 2090000   0.79738134  -0.20075549    1.7667363    1.1596549   -4.6481268    6.4148632    2.9263912 
 2100000   0.80555614  -0.11963944    1.7698618    1.1715438   -4.6446898    6.4145516    2.9414056 
 2110000   0.79957536  -0.17084802    1.7650731    1.1628458   -4.6450365    6.4101096    2.9279189 
 2120000   0.79782876  -0.13511381    1.7668507    1.1603056   -4.6469459    6.4137966    2.9271563 
 2130000   0.79703901  -0.16178386    1.7674038    1.1591571   -4.6478078    6.4152115    2.9265608 
 2140000    0.7982332   -0.1929144    1.7704447    1.1608938    -4.642176    6.4126207    2.9313385 
 2150000   0.80205966  -0.18412656    1.7668874    1.1664588   -4.6438544    6.4107418    2.9333461 
 2160000   0.79729837  -0.15583534    1.7689831    1.1595343   -4.6436553    6.4126384    2.9285174 
 2170000   0.80494744  -0.19369731    1.7700487    1.1706585   -4.6475657    6.4176143    2.9407072 
 2180000   0.79547053  -0.19048601    1.7617166     1.156876   -4.6539147    6.4156313    2.9185926 
 2190000   0.79590317  -0.15270865    1.7656452    1.1575052   -4.6430263    6.4086714    2.9231504 
 2200000   0.79359002  -0.21047571    1.7630291    1.1541411   -4.6490584    6.4120875    2.9171702 
 2210000   0.80541574  -0.15638273    1.7709951    1.1713396   -4.6422119     6.413207    2.9423347 
 2220000   0.79628024  -0.15047125    1.7724469    1.1580536   -4.6409785    6.4134254    2.9305005 
 2230000   0.80570965  -0.19901463    1.7705056     1.171767   -4.6452862    6.4157918    2.9422727 
 2240000   0.80131103  -0.20029311    1.7670799      1.16537   -4.6485787    6.4156586    2.9324499 
 2250000   0.79770001  -0.13487758    1.7720606    1.1601184    -4.645102    6.4171625     2.932179 
 2260000   0.79869783  -0.21217475    1.7650008    1.1615695   -4.6463332     6.411334    2.9265704 
 2270000   0.79995957   -0.2135239     1.769405    1.1634045   -4.6463335    6.4157385    2.9328095 
 2280000    0.7947156  -0.16333459    1.7681838    1.1557781   -4.6455469    6.4137307    2.9239619 
 2290000   0.81268107  -0.17765522    1.7612868    1.1819058   -4.6521022     6.413389    2.9431925 
 2300000   0.79871484 -0.099407389     1.784379    1.1615943   -4.6332414    6.4176204    2.9459733 
 2310000   0.79973295  -0.15387648    1.7618248    1.1630749   -4.6519281    6.4137529    2.9248997 
 2320000   0.80201818  -0.17083394    1.7670781    1.1663984   -4.6501849    6.4172629    2.9334765 
 2330000   0.79393719  -0.16237524    1.7675732     1.154646   -4.6462627    6.4138359    2.9222192 
 2340000    0.8081267 -0.085514631    1.7681589    1.1752822     -4.64581     6.413969    2.9434412 
 2350000   0.80250877  -0.15903525    1.7666202    1.1671119     -4.64673    6.4133501    2.9337321 
 2360000   0.80774778  -0.18383022    1.7633314    1.1747311   -4.6492495    6.4125809    2.9380625 
 2370000   0.79776243  -0.11944331    1.7666696    1.1602092   -4.6472722    6.4139418    2.9268788 
 2380000   0.80668016    -0.210851     1.763403    1.1731785   -4.6519243    6.4153274    2.9365815 
 2390000   0.79753229  -0.14001515    1.7654741    1.1598745   -4.6466545    6.4121286    2.9253486 
 2400000   0.80166809  -0.16869227    1.7721795    1.1658893   -4.6406505      6.41283    2.9380688 
 2410000   0.79813286  -0.24719364    1.7620238    1.1607479    -4.653544    6.4155678    2.9227717 
 2420000   0.79439451  -0.17664437    1.7728402    1.1553111    -4.644656    6.4174962    2.9281513 
 2430000   0.80484231  -0.16210267    1.7694483    1.1705056    -4.642928    6.4123763     2.939954 
 2440000   0.79967832   -0.1768866    1.7716047    1.1629955   -4.6445671    6.4161718    2.9346002 
 2450000   0.80563265   -0.2305934    1.7742738     1.171655   -4.6411963    6.4154701    2.9459288 
 2460000   0.79664525  -0.14870571    1.7727913    1.1585844   -4.6384418    6.4112331    2.9313757 
 2470000   0.79883255  -0.16396191    1.7714251    1.1617655   -4.6421247    6.4135497    2.9331905 
 2480000     0.797841   -0.1373051    1.7785833    1.1603234   -4.6354944    6.4140777    2.9389067 
 2490000    0.8012045  -0.12256996    1.7758529    1.1652151   -4.6368242    6.4126771     2.941068 
 2500000   0.80478227  -0.15093091    1.7707931    1.1704183   -4.6417023    6.4124954    2.9412114 
 2510000   0.79854439  -0.16068233    1.7754752    1.1613464   -4.6403032    6.4157784    2.9368216 
 2520000   0.79510755  -0.22999232     1.763862    1.1563481   -4.6507962    6.4146582    2.9202101 
 2530000   0.79957653  -0.13170287     1.777679    1.1628475   -4.6352877    6.4129667    2.9405265 
 2540000   0.80519142    -0.151373    1.7735349    1.1710134   -4.6366634    6.4101983    2.9445482 
 2550000   0.80483316  -0.18913926    1.7653254    1.1704923   -4.6490701    6.4143955    2.9358178 
 2560000   0.79671318  -0.16972781    1.7692827    1.1586832   -4.6434132    6.4126959    2.9279659 
 2570000   0.79492235  -0.18631862    1.7664178    1.1560788   -4.6482891    6.4147069    2.9224966 
 2580000    0.7977259  -0.12856255    1.7734175     1.160156   -4.6384277    6.4118452    2.9335735 
 2590000   0.80339103  -0.18643765    1.7639227     1.168395   -4.6477389    6.4116617    2.9323177 
 2600000   0.79315721  -0.12376622    1.7721638    1.1535117   -4.6383795    6.4105433    2.9256755 
 2610000     0.802944   -0.1265375    1.7699307    1.1677449   -4.6436836    6.4136143    2.9376756 
 2620000    0.8034207  -0.20731942    1.7728556    1.1684382   -4.6447039    6.4175596    2.9412938 
 2630000    0.8015621  -0.14456518    1.7685292    1.1657351   -4.6449747    6.4135038    2.9342643 
 2640000   0.79798618  -0.15381572    1.7698701    1.1605346   -4.6416489    6.4115189    2.9304047 
 2650000   0.80498366  -0.14600477    1.7733916    1.1707112   -4.6420366    6.4154282    2.9441028 
 2660000   0.80218255  -0.15051601    1.7708817    1.1666375   -4.6410442    6.4119259    2.9375192 
 2670000     0.792846  -0.16532524      1.77336    1.1530591   -4.6409582    6.4143182     2.926419 
 2680000   0.80323376  -0.17102395    1.7639961    1.1681663   -4.6498499     6.413846    2.9321624 
 2690000   0.79809068  -0.17174633    1.7657666    1.1606866   -4.6486453    6.4144119    2.9264531 
 2700000   0.79852673  -0.11721176    1.7709855    1.1613207   -4.6468251    6.4178106    2.9323062 
 2710000   0.79836744  -0.21849254    1.7610872    1.1610891   -4.6506998     6.411787    2.9221763 
 2720000   0.79839321  -0.13953476    1.7745227    1.1611265   -4.6395744    6.4140971    2.9356492 
 2730000   0.79387308  -0.21290918    1.7624706    1.1545528   -4.6529808    6.4154514    2.9170234 
 2740000   0.80576658  -0.16648272    1.7693537    1.1718498   -4.6461127    6.4154664    2.9412035 
 2750000    0.7955671  -0.16264999    1.7712932    1.1570164   -4.6414124    6.4127056    2.9283096 
 2760000   0.80422859  -0.15829781    1.7621728    1.1696131   -4.6482932    6.4104659    2.9317858 
 2770000   0.80422034   -0.1405206    1.7777864    1.1696011   -4.6347973    6.4125837    2.9473875 
 2780000   0.79845189  -0.12885094     1.772102    1.1612119   -4.6409778    6.4130798    2.9333138 
 2790000   0.79559234  -0.16211657    1.7702432    1.1570531   -4.6429862    6.4132294    2.9272963 
 2800000   0.80283804  -0.14384892    1.7749704    1.1675908   -4.6395528    6.4145232    2.9425612 
 2810000   0.80170345  -0.15410783    1.7678224    1.1659407   -4.6437255    6.4115479    2.9337631 
 2820000   0.80371711  -0.12813643    1.7690976    1.1688692   -4.6458597    6.4149573    2.9379668 
 2830000   0.79525102  -0.20984051    1.7644992    1.1565567   -4.6482598     6.412759     2.921056 
 2840000   0.80481162 -0.093266981    1.7751402     1.170461    -4.637424    6.4125642    2.9456012 
 2850000   0.80094316  -0.19691801    1.7700619     1.164835   -4.6435201     6.413582    2.9348969 
 2860000    0.8000876  -0.16431186    1.7721372    1.1635907   -4.6430599    6.4151971    2.9357279 
 2870000   0.80029026   -0.1682146    1.7688844    1.1638855   -4.6448241    6.4137085    2.9327698 
 2880000   0.80568044  -0.16353161    1.7689765    1.1717246   -4.6459442    6.4149207     2.940701 
 2890000   0.79786943  -0.19862593    1.7703288    1.1603648   -4.6444254    6.4147542    2.9306936 
 2900000   0.79868718  -0.13007166    1.7701038    1.1615541    -4.642934    6.4130379    2.9316579 
 2910000   0.80517362  -0.18410955    1.7671274    1.1709875   -4.6483498    6.4154771    2.9381148 
 2920000   0.79433853   -0.2223835      1.76823    1.1552297    -4.645674     6.413904    2.9234597 
 2930000   0.80095413  -0.15965849     1.770021    1.1648509   -4.6430833    6.4131043    2.9348719 
 2940000   0.79227489  -0.17155302    1.7725687    1.1522285   -4.6414992    6.4140679    2.9247972 
 2950000   0.79889542  -0.18057349     1.775221    1.1618569   -4.6404841    6.4157051     2.937078 
 2960000   0.79964552  -0.15738048     1.765202    1.1629478   -4.6454241    6.4106262    2.9281498 
 2970000   0.80138247  -0.23268165    1.7613138    1.1654739   -4.6536619    6.4149757    2.9267877 
 2980000   0.79841936  -0.21408535    1.7668807    1.1611646    -4.646286    6.4131668    2.9280453 
 2990000    0.7988493  -0.17308623    1.7655726    1.1617898   -4.6468278    6.4124005    2.9273625 
 3000000   0.79845866  -0.18173173    1.7691333    1.1612217   -4.6439455    6.4130788     2.930355 
 3010000   0.79632616  -0.14179109    1.7712119    1.1581204   -4.6388027    6.4100146    2.9293323 
 3020000   0.80163801  -0.11241537    1.7667809    1.1658455   -4.6467333    6.4135143    2.9326265 
 3030000   0.80295635  -0.19555065    1.7681404    1.1677628   -4.6498289    6.4179692    2.9359032 
 3040000   0.79710261  -0.20898221    1.7647098    1.1592496   -4.6485978    6.4133076    2.9239594 
 3050000   0.79742009  -0.23466784    1.7620881    1.1597113   -4.6504797    6.4125678    2.9217994 
 3060000    0.8058213  -0.14693479    1.7683799    1.1719294   -4.6446379    6.4130178    2.9403093 
 3070000   0.80051369  -0.17564327    1.7726966    1.1642104   -4.6426244    6.4153211     2.936907 
 3080000   0.79216189   -0.1667128    1.7685477    1.1520641    -4.647866    6.4164136    2.9206118 
 3090000   0.80939179  -0.13914134    1.7779272    1.1771221   -4.6399598     6.417887    2.9550493 
 3100000   0.79202461  -0.14986898    1.7793262    1.1518645   -4.6327383    6.4120644    2.9311906 
 3110000   0.79960845  -0.21041521    1.7671029    1.1628939    -4.647307      6.41441    2.9299968 
 3120000   0.80744459  -0.18074385    1.7694918    1.1742902   -4.6453566    6.4148484     2.943782 
 3130000   0.80036919  -0.17443238    1.7723353    1.1640003   -4.6424568     6.414792    2.9363355 
 3140000   0.79905814  -0.19678112    1.7644959    1.1620935   -4.6503986    6.4148945    2.9265894 
 3150000   0.80388849  -0.16949051    1.7647456    1.1691185   -4.6471509    6.4118965     2.933864 
 3160000   0.79641255  -0.23541876    1.7632492     1.158246   -4.6567578     6.420007    2.9214952 
 3170000   0.79734803  -0.14879144    1.7709972    1.1596065   -4.6403089    6.4113061    2.9306037 
 3180000   0.79501605  -0.17676524    1.7576404     1.156215   -4.6571575    6.4147979    2.9138554 
 3190000   0.79105514  -0.19763728    1.7688946    1.1504546   -4.6471964     6.416091    2.9193491 
 3200000    0.7972154  -0.27094647     1.764539    1.1594136   -4.6526287    6.4171678    2.9239527 
 3210000   0.80443317   -0.1967427    1.7683562    1.1699106   -4.6436579     6.412014    2.9382668 
 3220000   0.79675388  -0.17341651    1.7688596    1.1587424   -4.6482781    6.4171378     2.927602 
 3230000    0.7957775  -0.19022581    1.7682931    1.1573224   -4.6489207    6.4172138    2.9256155 
 3240000   0.80375613  -0.15110413    1.7676157     1.168926   -4.6398336    6.4074493    2.9365417 
 3250000   0.79543548  -0.19629952    1.7684728     1.156825   -4.6403698    6.4088426    2.9252978 
 3260000   0.80686434   -0.1318465    1.7728151    1.1734463   -4.6422026    6.4150177    2.9462614 
 3270000   0.80652427  -0.18039873    1.7711115    1.1729518   -4.6437561    6.4148676    2.9440632 
 3280000   0.80269374  -0.19391944    1.7674989    1.1673809   -4.6464609    6.4139598    2.9348798 
 3290000   0.80046484  -0.12223176    1.7729027    1.1641394   -4.6463712    6.4192739    2.9370421 
 3300000   0.79894043  -0.19182387    1.7734936    1.1619224    -4.644109    6.4176025    2.9354159 
 3310000   0.80044414  -0.22381185    1.7622151    1.1641092   -4.6505874    6.4128025    2.9263244 
 3320000   0.80055111  -0.19182145    1.7726843    1.1642648   -4.6446862    6.4173705    2.9369491 
 3330000   0.80509546  -0.12550006    1.7780119    1.1708738    -4.636675    6.4146869    2.9488857 
 3340000   0.80473238     -0.13132    1.7698886    1.1703458   -4.6424309    6.4123195    2.9402344 
 3350000    0.7924015   -0.1536383    1.7670039    1.1524126   -4.6453769    6.4123808    2.9194165 
 3360000   0.79406838  -0.15745315    1.7682553    1.1548368   -4.6444726    6.4127279    2.9230921 
 3370000   0.79545526  -0.18037795    1.7682573    1.1568538   -4.6458201    6.4140774    2.9251111 
 3380000    0.8001699  -0.11941238    1.7776516    1.1637104   -4.6373091    6.4149607     2.941362 
 3390000   0.79498476    -0.157657    1.7795128    1.1561695   -4.6358638    6.4153765    2.9356823 
 3400000   0.79727191   -0.1711055    1.7665566    1.1594958   -4.6507004     6.417257    2.9260524 
 3410000   0.80788284  -0.10917651     1.774077    1.1749276   -4.6410488    6.4151258    2.9490046 
 3420000   0.80573798  -0.12572811     1.779692    1.1718082   -4.6309431    6.4106352    2.9515003 
 3430000   0.79687832  -0.16573475    1.7705438    1.1589234   -4.6453751    6.4159189    2.9294672 
 3440000   0.80097744  -0.18868282     1.768421    1.1648849    -4.648361     6.416782    2.9333059 
 3450000   0.80704029  -0.16232961    1.7626724    1.1737022   -4.6520679    6.4147403    2.9363746 
 3460000   0.80046332  -0.16853046    1.7743753    1.1641372   -4.6427304    6.4171057    2.9385125 
 3470000   0.80112391  -0.11152464    1.7693801    1.1650979   -4.6447212    6.4141013    2.9344779 
 3480000   0.80212977  -0.13779271    1.7774013    1.1665607    -4.640436    6.4178373     2.943962 
 3490000   0.79795162   -0.2277642    1.7745645    1.1604843   -4.6431059    6.4176705    2.9350488 
 3500000   0.79983887   -0.2135224    1.7698813     1.163229   -4.6440921    6.4139734    2.9331103 
 3510000   0.80736916  -0.20564539    1.7673258    1.1741805   -4.6478097    6.4151354    2.9415063 
 3520000   0.80194995  -0.18683519    1.7742494    1.1662992   -4.6407398    6.4149892    2.9405486 
 3530000   0.79960066  -0.17724227    1.7684497    1.1628826   -4.6454772    6.4139269    2.9313322 
 3540000   0.80220456  -0.12802772    1.7682072    1.1666695   -4.6431674    6.4113747    2.9348767 
 3550000   0.80255689  -0.16227942     1.763871    1.1671819   -4.6480141    6.4118851    2.9310529 
 3560000   0.80109474  -0.17422223    1.7643592    1.1650554   -4.6466124    6.4109716    2.9294147 
 3570000   0.80261794  -0.23972647     1.768472    1.1672707   -4.6451269    6.4135989    2.9357427 
 3580000   0.80037139  -0.20541863    1.7684312    1.1640035   -4.6467818    6.4152129    2.9324346 
 3590000   0.80139539  -0.19755716    1.7676044    1.1654927   -4.6452358    6.4128402    2.9330971 
 3600000   0.79553521  -0.13155389    1.7690616    1.1569701   -4.6461482    6.4152099    2.9260317 
 3610000   0.79980113  -0.17332139    1.7734787    1.1631741   -4.6398115    6.4132902    2.9366528 
 3620000   0.79638188  -0.14235974     1.769178    1.1582014   -4.6441267    6.4133048    2.9273794 
 3630000   0.79275459  -0.19910815    1.7611148    1.1529261   -4.6524918    6.4136066    2.9140409 
 3640000   0.80044687  -0.21768106    1.7735913    1.1641132    -4.641102    6.4146933    2.9377045 
 3650000   0.80145607  -0.19014054    1.7647832    1.1655809    -4.649276    6.4140592    2.9303641 
 3660000   0.79790793  -0.12243697    1.7800779    1.1604208   -4.6351027    6.4151806    2.9404987 
 3670000   0.79785273  -0.18892426    1.7656534    1.1603405   -4.6482429    6.4138963    2.9259939 
 3680000   0.80031818  -0.21856744    1.7745027    1.1639261   -4.6403687    6.4148714    2.9384287 
 3690000   0.80458333  -0.24259653     1.771085     1.170129   -4.6437908    6.4148758     2.941214 
 3700000   0.79652475  -0.16289908    1.7667786    1.1584092    -4.644491    6.4112696    2.9251878 
 3710000   0.79923359  -0.16822334     1.773631    1.1623487   -4.6401371    6.4137681    2.9359797 
 3720000   0.79339891  -0.20206889    1.7636876    1.1538632   -4.6514839    6.4151715    2.9175507 
 3730000   0.79644723  -0.22707714    1.7661501    1.1582964   -4.6457085    6.4118586    2.9244466 
 3740000   0.79299209  -0.18749687    1.7695182    1.1532715   -4.6423421    6.4118603    2.9227897 
 3750000   0.79692941  -0.17077116    1.7657614    1.1589977   -4.6467639    6.4125253    2.9247591 
 3760000   0.80029839  -0.20641836    1.7659946    1.1638973   -4.6485973    6.4145919    2.9298918 
 3770000   0.80553238  -0.18514806    1.7691092    1.1715092   -4.6439416    6.4130508    2.9406185 
 3780000   0.80273788  -0.17972724    1.7703195    1.1674451   -4.6455271    6.4158466    2.9377646 
 3790000   0.79406375  -0.19452011    1.7677875    1.1548301   -4.6479187    6.4157062    2.9226176 
 3800000   0.80545186  -0.14767849    1.7641983    1.1713921   -4.6483774    6.4125757    2.9355904 
 3810000    0.7946928  -0.21581372    1.7602928    1.1557449   -4.6526881    6.4129809    2.9160377 
 3820000   0.80248178  -0.19452608     1.772549    1.1670726   -4.6441515    6.4167005    2.9396216 
 3830000   0.79896101  -0.17138896    1.7605271    1.1619523   -4.6545802    6.4151073    2.9224794 
 3840000   0.80434615  -0.14712703     1.770616    1.1697841   -4.6442678    6.4148838       2.9404 
 3850000   0.79481132  -0.13867665    1.7688488    1.1559173    -4.646115    6.4149637    2.9247661 
 3860000   0.80124728  -0.22007973    1.7611273    1.1652773   -4.6517275    6.4128548    2.9264046 
 3870000   0.80115974  -0.17307938    1.7764084      1.16515   -4.6402995    6.4167079    2.9415584 
 3880000   0.80904261  -0.19277217    1.7620499    1.1766143   -4.6496752    6.4117251    2.9386642 
 3890000   0.79147389  -0.18589092    1.7676186    1.1510636   -4.6464198    6.4140385    2.9186822 
 3900000   0.80433946  -0.18595906    1.7746431    1.1697743   -4.6440861    6.4187292    2.9444174 
 3910000   0.79814572   -0.2093544    1.7676852    1.1607666   -4.6490858     6.416771    2.9284517 
 3920000   0.79978268  -0.15180236    1.7645913    1.1631473   -4.6478211    6.4124124    2.9277386 
 3930000   0.79989016  -0.22741162    1.7611476    1.1633036   -4.6497262    6.4108739    2.9244512 
 3940000    0.7947368  -0.12266468    1.7753409    1.1558089   -4.6372583    6.4125992    2.9311498 
 3950000    0.8010228  -0.16855076    1.7684825    1.1649508   -4.6426256    6.4111082    2.9334334 
 3960000   0.80171998  -0.10034114    1.7702413    1.1659647   -4.6451417     6.415383    2.9362061 
 3970000   0.79888699  -0.19175602    1.7656936    1.1618447   -4.6480912    6.4137848    2.9275383 
 3980000   0.79770827  -0.19915035     1.769966    1.1601304   -4.6451393    6.4151054    2.9300964 
 3990000   0.79545727  -0.26911515    1.7622198    1.1568567   -4.6510811    6.4133009    2.9190765 
 4000000    0.8061446  -0.15133572    1.7705426    1.1723996   -4.6448832    6.4154258    2.9429422 
 4010000   0.79467678  -0.23248335     1.772506    1.1557216   -4.6426288    6.4151348    2.9282277 
 4020000   0.80033367  -0.19113696    1.7760674    1.1639486   -4.6439147    6.4199822     2.940016 
 4030000   0.79999538  -0.21194908    1.7683186    1.1634566   -4.6479086    6.4162272    2.9317752 
 4040000   0.80259004  -0.15962027     1.769343    1.1672301   -4.6461529     6.415496    2.9365731 
 4050000   0.79639701  -0.23449967    1.7621012    1.1582234   -4.6544196    6.4165208    2.9203246 
 4060000   0.80077788  -0.16184495    1.7723125    1.1645946   -4.6410107    6.4133232    2.9369072 
 4070000   0.80097715  -0.21219584    1.7758139    1.1648844   -4.6376306    6.4134445    2.9406984 
 4080000    0.8012403  -0.17202301    1.7716458    1.1652671   -4.6408581    6.4125039    2.9369129 
 4090000   0.79233699  -0.18154933    1.7703103    1.1523188   -4.6455622    6.4158724     2.922629 
 4100000   0.79748414   -0.1604685    1.7735332    1.1598044   -4.6419733    6.4155065    2.9333376 
 4110000   0.80292115  -0.17117037    1.7742822    1.1677116   -4.6363963    6.4106785    2.9419939 
 4120000   0.79671371  -0.15579534    1.7760059     1.158684   -4.6385354    6.4145413    2.9346899 
 4130000   0.79856818   -0.2133832    1.7694286     1.161381   -4.6436186    6.4130472    2.9308096 
 4140000   0.79944061   -0.2115362    1.7688393    1.1626498   -4.6456224    6.4144617    2.9314891 
 4150000   0.80285236  -0.23612613    1.7679706    1.1676116   -4.6450706    6.4130413    2.9355822 
 4160000   0.80436851  -0.23679569      1.76536    1.1698166   -4.6478887    6.4132487    2.9351766 
 4170000   0.79785269  -0.15474892    1.7711793    1.1603404   -4.6446805    6.4158597    2.9315197 
 4180000   0.80090322  -0.10475825    1.7711594    1.1647769   -4.6421039    6.4132632    2.9359363 
 4190000   0.79774216  -0.20820386    1.7633702    1.1601797   -4.6512272    6.4145973    2.9235499 
 4200000   0.79947782   -0.1467499    1.7648699    1.1627039   -4.6490157    6.4138856    2.9275738 
 4210000   0.79527337    -0.194591    1.7719868    1.1565892   -4.6409826    6.4129693     2.928576 
 4220000   0.79966003  -0.22195755    1.7637878    1.1629689   -4.6520641    6.4158519    2.9267567 
 4230000   0.80226922  -0.13242764    1.7692122    1.1667635   -4.6431854    6.4123977    2.9359758 
 4240000   0.80141789  -0.10689482      1.77445    1.1655254   -4.6420495    6.4164995    2.9399754 
 4250000   0.79474588  -0.16360478    1.7686092    1.1558221   -4.6421331    6.4107423    2.9244313 
 4260000   0.79816911  -0.21078047    1.7558266    1.1608006   -4.6582389    6.4140655    2.9166272 
 4270000   0.79532308  -0.11361428    1.7780439    1.1566615   -4.6422997    6.4203436    2.9347054 
 4280000   0.80709176  -0.12106871    1.7750062    1.1737771   -4.6444908     6.419497    2.9487833 
 4290000   0.80425096  -0.16576435    1.7643255    1.1696456   -4.6468321    6.4111576    2.9339711 
 4300000   0.80003118  -0.16491394    1.7689278    1.1635087   -4.6445652     6.413493    2.9324365 
 4310000   0.80075546  -0.21369981    1.7619515     1.164562   -4.6505513    6.4125028    2.9265135 
 4320000   0.80631742  -0.15967314    1.7732565    1.1726509   -4.6437119    6.4169684    2.9459074 
 4330000   0.79652731  -0.20081652     1.774361    1.1584129   -4.6384363    6.4127973    2.9327739 
 4340000     0.791853  -0.21188841    1.7584631    1.1516149   -4.6565936    6.4150567     2.910078 
 4350000   0.80583355  -0.19128392    1.7717496    1.1719472   -4.6422547    6.4140043    2.9436968 
 4360000   0.80473125  -0.16396703    1.7775149    1.1703441   -4.6380055    6.4155203     2.947859 
 4370000   0.79857719  -0.15681364    1.7756262    1.1613941   -4.6374168     6.413043    2.9370203 
 4380000   0.80344657  -0.18985142    1.7716241    1.1684758   -4.6443821    6.4160062    2.9400999 
 4390000   0.80533611  -0.16917491    1.7714762    1.1712238   -4.6437017    6.4151779       2.9427 
 4400000   0.80228027  -0.21189706    1.7654661    1.1667796   -4.6480112    6.4134773    2.9322457 
 4410000   0.80142301     -0.13818    1.7730206    1.1655329   -4.6405685    6.4135892    2.9385535 
 4420000   0.80112211  -0.15815092    1.7656859    1.1650953   -4.6475365    6.4132225    2.9307812 
 4430000   0.80032944  -0.18328374    1.7700946    1.1639424    -4.645133    6.4152276    2.9340371 
 4440000   0.79717289   -0.1895981    1.7697612    1.1593518   -4.6457433    6.4155045     2.929113 
 4450000   0.80486833  -0.19710089    1.7612972    1.1705435   -4.6488672    6.4101644    2.9318407 
 4460000   0.80321382   -0.1423504    1.7741757    1.1681373   -4.6388116    6.4129873     2.942313 
 4470000    0.8050349  -0.21139348    1.7672107    1.1707857   -4.6463961    6.4136068    2.9379964 
 4480000    0.7984419   -0.1790499    1.7635185    1.1611973   -4.6474102    6.4109287    2.9247158 
 4490000   0.79644454  -0.16071584    1.7688729    1.1582925    -4.648105     6.416978    2.9271655 
 4500000   0.80174051     -0.11749      1.77148    1.1659946   -4.6415965    6.4130764    2.9374746 
 4510000   0.79999654  -0.16759787    1.7718855    1.1634583   -4.6447148    6.4166003    2.9353438 
 4520000    0.8023103  -0.17084416    1.7741865    1.1668233   -4.6427306    6.4169171    2.9410097 
 4530000   0.80148153  -0.17571845    1.7704914     1.165618   -4.6429854    6.4134768    2.9361093 
 4540000   0.79944905  -0.20139157    1.7687381    1.1626621   -4.6443949     6.413133    2.9314001 
 4550000    0.8024237  -0.13637323    1.7763661    1.1669882   -4.6372418    6.4136079    2.9433543 
 4560000   0.80169836  -0.13682473    1.7776546    1.1659333   -4.6377608    6.4154154    2.9435879 
 4570000   0.80162214  -0.13669031    1.7766268    1.1658225   -4.6396482    6.4162749    2.9424492 
 4580000    0.8019164  -0.20456449    1.7657484    1.1662504   -4.6480377    6.4137861    2.9319988 
 4590000   0.80682815  -0.17544689    1.7666991    1.1733937   -4.6461177    6.4128169    2.9400928 
 4600000   0.79575594 -0.076593394    1.7747751    1.1572911   -4.6386177    6.4133928    2.9320662 
 4610000   0.79998292  -0.13037822    1.7710681    1.1634385   -4.6406889    6.4117569    2.9345065 
 4620000   0.80003684  -0.20192658    1.7740433    1.1635169   -4.6407881    6.4148314    2.9375602 
 4630000   0.79610058  -0.15620589     1.771754    1.1577923   -4.6417138    6.4134678    2.9295463 
 4640000   0.80464791   -0.1840996    1.7698407    1.1702229   -4.6446717    6.4145124    2.9400637 
 4650000    0.8019669  -0.23090262    1.7641266    1.1663238   -4.6519753    6.4161019    2.9304505 
 4660000   0.79816111  -0.17566662    1.7690942     1.160789   -4.6451592    6.4142534    2.9298832 
 4670000    0.8049906  -0.17057979    1.7755307    1.1707213   -4.6400374    6.4155682     2.946252 
 4680000    0.8030139  -0.12767863    1.7727496    1.1678465   -4.6399174     6.412667    2.9405961 
 4690000   0.81343175  -0.17611967    1.7618832    1.1829975    -4.652341    6.4142242    2.9448807 
 4700000   0.79840469  -0.14476012    1.7674373    1.1611432   -4.6455449    6.4129822    2.9285805 
 4710000   0.80382317  -0.16624798    1.7698805    1.1690235   -4.6441765     6.414057     2.938904 
 4720000   0.80015886  -0.15729795    1.7657973    1.1636944   -4.6468968    6.4126941    2.9294917 
 4730000   0.80072845  -0.14647259    1.7635967    1.1645227   -4.6499025    6.4134992    2.9281194 
 4740000    0.7985274  -0.19094074    1.7742879    1.1613217   -4.6425001    6.4167881    2.9356096 
 4750000   0.80272178  -0.13749231    1.7712188    1.1674217   -4.6439294    6.4151482    2.9386405 
 4760000   0.79645141  -0.14704636    1.7720507    1.1583025   -4.6427895    6.4148402    2.9303532 
 4770000   0.79483665  -0.19855344    1.7712855    1.1559541   -4.6436311    6.4149165    2.9272396 
 4780000   0.79463663  -0.23933384    1.7643204    1.1556632   -4.6497401    6.4140605    2.9199837 
 4790000   0.80897168  -0.16634414    1.7702206    1.1765111    -4.644494    6.4147146    2.9467317 
 4800000   0.80133348  -0.18106206    1.7664654    1.1654026   -4.6487824    6.4152478     2.931868 
 4810000   0.79873215  -0.20401199    1.7633421    1.1616194   -4.6519544    6.4152966    2.9249616 
 4820000   0.79677521  -0.18649255    1.7686653    1.1587734   -4.6453455    6.4140108    2.9274387 
 4830000   0.79647502  -0.19446665    1.7693021    1.1583368   -4.6444467    6.4137488    2.9276389 
 4840000   0.79548003  -0.19808746    1.7721065    1.1568898   -4.6443782    6.4164847    2.9289963 
 4850000   0.79732579  -0.17451031    1.7700822    1.1595741   -4.6418561    6.4119383    2.9296563 
 4860000   0.80086488  -0.16150311    1.7724589    1.1647212   -4.6366877    6.4091466      2.93718 
 4870000   0.80387851  -0.14063618    1.7699663     1.169104   -4.6446535    6.4146198    2.9390702 
 4880000   0.80128272  -0.12555771    1.7765016    1.1653288   -4.6383413    6.4148429    2.9418304 
 4890000   0.79717703  -0.16761766    1.7735856    1.1593578   -4.6417297    6.4153153    2.9329434 
 4900000   0.79893215  -0.16979236    1.7654664    1.1619103   -4.6461382    6.4116046    2.9273767 
 4910000   0.80114651  -0.21052943    1.7699368    1.1651307   -4.6434076    6.4133444    2.9350675 
 4920000   0.80022954  -0.20413561    1.7657123    1.1637971   -4.6509199    6.4166322    2.9295095 
 4930000   0.80632139  -0.20521235    1.7771223    1.1726567   -4.6374075    6.4145299     2.949779 
 4940000   0.80150184   -0.2416464    1.7642438    1.1656475   -4.6513418    6.4155856    2.9298913 
 4950000   0.80158467  -0.19226799    1.7655127     1.165768   -4.6487944    6.4143071    2.9312806 
 4960000   0.79612234  -0.21929581    1.7708382    1.1578239   -4.6444737     6.415312    2.9286622 
 4970000   0.80394741  -0.13920283    1.7618639    1.1692042   -4.6525513    6.4144152    2.9310681 
 4980000   0.79579935   -0.1882885    1.7682735    1.1573542   -4.6475474    6.4158208    2.9256277 
 4990000   0.79787714  -0.13522585    1.7706468     1.160376   -4.6434084    6.4140553    2.9310228 
 5000000   0.79527504  -0.19440123     1.765161    1.1565917   -4.6479817    6.4131428    2.9217527 
 5010000   0.80053923  -0.18988272    1.7735575    1.1642476    -4.641237    6.4147945     2.937805 
 5020000   0.80118009    -0.192648    1.7599814    1.1651796   -4.6566221    6.4166035     2.925161 
 5030000    0.7979904  -0.11199764    1.7728398    1.1605407   -4.6398476    6.4126874    2.9333805 
 5040000   0.80077931  -0.13607074    1.7719875    1.1645967   -4.6386876    6.4106751    2.9365842 
 5050000   0.80154292  -0.14955115    1.7680737    1.1657072   -4.6432266    6.4113002    2.9337809 
 5060000   0.80143426  -0.08466695    1.7751531    1.1655492    -4.638336    6.4134891    2.9407024 
 5070000   0.80140581  -0.17542844    1.7634095    1.1655078   -4.6511118    6.4145213    2.9289173 
 5080000   0.79467269  -0.19078123    1.7697477    1.1557157   -4.6466786    6.4164263    2.9254633 
 5090000   0.80182405  -0.18467157    1.7724808    1.1661161   -4.6426361    6.4151169    2.9385969 
 5100000   0.80018567  -0.15071661    1.7711892    1.1637334    -4.642695    6.4138842    2.9349225 
 5110000   0.80818086  -0.18215159     1.769103     1.175361   -4.6450837    6.4141867     2.944464 
 5120000   0.79282597  -0.15924035     1.770016    1.1530299   -4.6462447    6.4162607    2.9230459 
 5130000   0.79400648 -0.090544083    1.7708987    1.1547468   -4.6427087    6.4136074    2.9256455 
 5140000   0.79839576  -0.12903669     1.772026    1.1611302   -4.6431947    6.4152206    2.9331562 
 5150000   0.79849498 -0.088441884    1.7755063    1.1612745   -4.6390161    6.4145224    2.9367808 
 5160000   0.80399899  -0.15178014    1.7690751    1.1692792   -4.6447827    6.4138578    2.9383543 
 5170000   0.80048122   -0.1178617     1.778613    1.1641632   -4.6342357    6.4128487    2.9427762 
 5180000   0.80107597  -0.15203269    1.7676554    1.1650281     -4.64448    6.4121354    2.9326836 
 5190000   0.79962988  -0.20815878    1.7688389     1.162925   -4.6455638    6.4144027     2.931764 
 5200000   0.80024576  -0.12728782    1.7706896    1.1638207   -4.6442951    6.4149847    2.9345103 
 5210000   0.80129935  -0.25324734    1.7653593     1.165353   -4.6488039    6.4141632    2.9307123 
 5220000   0.80256901  -0.16351918    1.7704539    1.1671995   -4.6437506    6.4142045    2.9376534 
 5230000   0.79436045  -0.21449542    1.7684301    1.1552616   -4.6453839     6.413814    2.9236916 
 5240000   0.80270734  -0.15730538    1.7674384    1.1674007   -4.6473408    6.4147792    2.9348391 
 5250000   0.80233963  -0.17298953    1.7688269    1.1668659   -4.6486438    6.4174707    2.9356928 
 5260000    0.8035293  -0.18426116    1.7684981    1.1685961   -4.6478864    6.4163845    2.9370942 
 5270000   0.79759599  -0.10615877    1.7751874    1.1599671   -4.6410806     6.416268    2.9351545 
 5280000   0.80004155  -0.15121679    1.7750021    1.1635238   -4.6386501    6.4136522    2.9385259 
 5290000   0.79611477  -0.10976589    1.7724939    1.1578129     -4.63872    6.4112138    2.9303068 
 5300000   0.80288593  -0.21284448    1.7718587    1.1676604   -4.6446228    6.4164815    2.9395192 
 5310000   0.79975541  -0.14598776    1.7723939    1.1631076   -4.6451027    6.4174967    2.9355016 
 5320000   0.79874798  -0.19025298    1.7678861    1.1616425   -4.6480463    6.4159324    2.9295285 
 5330000   0.80079956  -0.18637543    1.7689242    1.1646261   -4.6441647    6.4130889    2.9335503 
 5340000   0.80536842  -0.17880061    1.7723575    1.1712708   -4.6431589    6.4155164    2.9436283 
 5350000    0.8016701  -0.14824694     1.762593    1.1658922   -4.6507585    6.4133515    2.9284852 
 5360000   0.79823257  -0.17365003    1.7770849    1.1608929   -4.6415127    6.4185976    2.9379778 
 5370000    0.8011006  -0.14610967    1.7802253     1.165064   -4.6358473    6.4160726    2.9452892 
 5380000   0.79936538  -0.17589676    1.7669216    1.1625404   -4.6457779    6.4126995     2.929462 
 5390000   0.80099375  -0.15872689     1.763895    1.1649086   -4.6483554    6.4122504    2.9288035 
 5400000    0.8009374  -0.14887717    1.7727498    1.1648266   -4.6423057    6.4150555    2.9375764 
 5410000   0.80067337  -0.14358034    1.7708343    1.1644426   -4.6450382    6.4158725    2.9352769 
 5420000   0.80287932  -0.17337315     1.774138    1.1676508    -4.641061     6.415199    2.9417888 
 5430000   0.79948379  -0.20409481    1.7610794    1.1627126   -4.6508307    6.4119101    2.9237919 
 5440000   0.80950849  -0.15999073     1.766734    1.1772918   -4.6496552    6.4163893    2.9440258 
 5450000   0.79713896  -0.19432256    1.7678875    1.1593024   -4.6464876    6.4143751      2.92719 
 5460000   0.80275298  -0.20503474    1.7693057    1.1674671   -4.6473435    6.4166492    2.9367728 
 5470000   0.80542699  -0.16807277     1.776597     1.171356   -4.6402342    6.4168312    2.9479529 
 5480000   0.79915659  -0.15070633     1.777299    1.1622367   -4.6364154    6.4137144    2.9395358 
 5490000   0.79432549  -0.15661457    1.7704454    1.1552107   -4.6448467    6.4152921    2.9256561 
 5500000   0.80303338  -0.12623593    1.7690401    1.1678749   -4.6429406    6.4119807     2.936915 
 5510000   0.80396051  -0.10597975    1.7672965    1.1692232   -4.6435762    6.4108726    2.9365197 
 5520000   0.80176925  -0.14745103     1.777158    1.1660364   -4.6377253    6.4148832    2.9431944 
 5530000   0.79393552  -0.20086014    1.7702645    1.1546436   -4.6437518    6.4140163    2.9249081 
 5540000   0.80243286  -0.16976455    1.7637378    1.1670015    -4.648481    6.4122187    2.9307393 
 5550000   0.80096706  -0.11923173    1.7780205    1.1648697   -4.6385185     6.416539    2.9428903 
 5560000   0.79098871  -0.16662819    1.7762999     1.150358   -4.6404181     6.416718    2.9266579 
 5570000   0.80440875  -0.18558974    1.7588381    1.1698751   -4.6545677    6.4134057    2.9287132 
 5580000   0.79931269  -0.16245783    1.7729827    1.1624638   -4.6442857    6.4172684    2.9354465 
 5590000   0.80499886  -0.15235483    1.7694709    1.1707333   -4.6437231     6.413194    2.9402042 
 5600000   0.80236695  -0.16243865    1.7707336    1.1669056   -4.6448126    6.4155462    2.9376393 
 5610000   0.79199523  -0.18902941     1.768018    1.1518218     -4.64694     6.414958    2.9198398 
 5620000   0.79787185  -0.18146945    1.7729038    1.1603683   -4.6388185    6.4117223    2.9332721 
 5630000   0.80136913  -0.13382238    1.7831142    1.1654545   -4.6333511    6.4164653    2.9485687 
 5640000   0.80742781  -0.16038626    1.7665788    1.1742658   -4.6455059    6.4120847    2.9408447 
 5650000   0.79531286   -0.1824408    1.7636968    1.1566467   -4.6493555    6.4130523    2.9203435 
 5660000   0.79564682  -0.12206129    1.7716983    1.1571324   -4.6442776    6.4159759    2.9288306 
 5670000   0.80229707  -0.17901061    1.7718417     1.166804   -4.6405779    6.4124196    2.9386458 
 5680000    0.8087657  -0.17331388    1.7633496    1.1762115   -4.6505588    6.4139083    2.9395611 
 5690000   0.79694835  -0.17905206    1.7698857    1.1590252   -4.6444027    6.4142885    2.9289109 
 5700000    0.8041389  -0.13277404    1.7749548    1.1694827   -4.6423051    6.4172599    2.9444375 
 5710000   0.80239403  -0.18449617    1.7677758     1.166945   -4.6465698    6.4143456    2.9347209 
 5720000   0.80651195  -0.20962412    1.7673083    1.1729338   -4.6492041    6.4165124    2.9402422 
 5730000   0.80409367  -0.14335209    1.7809951    1.1694169   -4.6344893    6.4154844     2.950412 
 5740000   0.80457783  -0.14789834    1.7715032     1.170121   -4.6397208     6.411224    2.9416242 
 5750000   0.79754378  -0.21386237    1.7685796    1.1598912   -4.6442415    6.4128211    2.9284708 
 5760000   0.80126402  -0.18625233    1.7710244    1.1653016   -4.6429466     6.413971    2.9363261 
 5770000   0.80496528 -0.084531912    1.7700321    1.1706845    -4.643533    6.4135652    2.9407166 
 5780000   0.80136327  -0.15965364    1.7755545     1.165446    -4.640523    6.4160774    2.9410004 
 5790000   0.80481693   -0.1361572    1.7700972    1.1704687    -4.641773    6.4118702    2.9405659 
 5800000   0.80227838  -0.24917278    1.7636987    1.1667768   -4.6481455    6.4118442    2.9304755 
 5810000   0.80334956  -0.14207852    1.7718255    1.1683347   -4.6413904     6.413216    2.9401602 
 5820000   0.80706335  -0.23172819    1.7620866    1.1737358   -4.6499415    6.4120281    2.9358223 
 5830000   0.80220915  -0.15036935    1.7735782    1.1666762   -4.6427122    6.4162904    2.9402544 
 5840000   0.79512553   -0.1791455    1.7713394    1.1563742   -4.6424932    6.4138326    2.9277136 
 5850000   0.79738951  -0.14387133    1.7708564    1.1596668   -4.6451741    6.4160304    2.9305232 
 5860000   0.80024156  -0.21319151    1.7708736    1.1638146   -4.6432178    6.4140914    2.9346882 
 5870000   0.80630179  -0.16718503    1.7701252    1.1726282   -4.6427264    6.4128516    2.9427534 
 5880000   0.80199465  -0.14453794    1.7737958    1.1663642   -4.6410319    6.4148277      2.94016 
 5890000    0.8044707  -0.19745982    1.7680525    1.1699652   -4.6461594    6.4142119    2.9380177 
 5900000   0.79917251  -0.17817752    1.7694741    1.1622599   -4.6446557    6.4141298     2.931734 
 5910000   0.79795989  -0.19346755    1.7639158    1.1604963   -4.6483761    6.4122919    2.9244121 
 5920000   0.80148318  -0.15436614     1.763545    1.1656204   -4.6516491    6.4151941    2.9291654 
 5930000   0.80038841  -0.11523778    1.7687731    1.1640282   -4.6461299     6.414903    2.9328013 
 5940000   0.80109068  -0.10040759    1.7756263    1.1650495   -4.6384262    6.4140526    2.9406759 
 5950000   0.80197412  -0.19323552    1.7653489    1.1663344   -4.6438794    6.4092283    2.9316833 
 5960000   0.79893106 -0.095593134    1.7791321    1.1619087   -4.6365921    6.4157242    2.9410409 
 5970000   0.80121766  -0.13441383    1.7710029    1.1652342   -4.6463252    6.4173281    2.9362371 
 5980000   0.79901585  -0.15402483    1.7655305    1.1620321   -4.6465894      6.41212    2.9275626 
 5990000   0.80228433  -0.21704015    1.7640933    1.1667855   -4.6516661    6.4157594    2.9308788 
 6000000   0.79313933  -0.19978265    1.7755048    1.1534857   -4.6392916    6.4147964    2.9289905 
Loop time of 59369.1 on 216 procs for 6000000 steps with 27950 atoms

Performance: 43659.068 tau/day, 101.063 timesteps/s
99.9% CPU use with 216 MPI tasks x 1 OpenMP threads

MPI task timing breakdown:
Section |  min time  |  avg time  |  max time  |%varavg| %total
---------------------------------------------------------------
Pair    | 699.57     | 804.47     | 928.94     | 126.5 |  1.36
Bond    | 16.023     | 18.216     | 20.825     |  23.0 |  0.03
Kspace  | 53050      | 53241      | 53384      |  27.9 | 89.68
Neigh   | 630.24     | 664.9      | 705.78     |  67.6 |  1.12
Comm    | 1280.9     | 1515.6     | 1764.5     | 337.4 |  2.55
Output  | 2.647      | 2.6986     | 2.7093     |   0.4 |  0.00
Modify  | 2528.2     | 2701.7     | 2882.7     | 155.1 |  4.55
Other   |            | 420.2      |            |       |  0.71

Nlocal:    129.398 ave 174 max 110 min
Histogram: 9 48 80 38 18 10 4 6 2 1
Nghost:    955.889 ave 1051 max 881 min
Histogram: 1 16 31 54 42 31 17 15 2 7
Neighs:    4733.11 ave 7884 max 3655 min
Histogram: 19 82 64 19 10 12 6 2 0 2

Total # of neighbors = 1022351
Ave neighs/atom = 36.5779
Ave special neighs/atom = 0.62254
Neighbor list builds = 806931
Dangerous builds = 0
System init for write_restart ...
PPPM initialization ...
  using 12-bit tables for long-range coulomb (src/kspace.cpp:332)
  G vector (1/distance) = 1.17008
  grid = 96 96 96
  stencil order = 5
  estimated absolute RMS force accuracy = 0.000129317
  estimated relative force accuracy = 0.000129317
  using double precision FFTW3
  3d grid and FFT values/proc = 9261 4608
WARNING: Neighbor exclusions used with KSpace solver may give inconsistent Coulombic energies (src/neighbor.cpp:486)
Neighbor list info ...
  update every 1 steps, delay 0 steps, check yes
  max neighbors/atom: 2000, page size: 100000
  master list distance cutoff = 2.8
  ghost atom cutoff = 2.8
  binsize = 1.4, bins = 24 24 24
  12 neighbor lists, perpetual/occasional/extra = 2 10 0
  (1) pair lj/cut, perpetual
      attributes: half, newton on
      pair build: half/bin/newton
      stencil: half/bin/3d/newton
      bin: standard
  (2) pair coul/long, perpetual, skip from (1)
      attributes: half, newton on
      pair build: skip
      stencil: none
      bin: none
  (3) compute rdf, occasional, copy from (1)
      attributes: half, newton on
      pair build: copy
      stencil: none
      bin: none
  (4) compute rdf, occasional, copy from (1)
      attributes: half, newton on
      pair build: copy
      stencil: none
      bin: none
  (5) compute rdf, occasional, copy from (1)
      attributes: half, newton on
      pair build: copy
      stencil: none
      bin: none
  (6) compute rdf, occasional, copy from (1)
      attributes: half, newton on
      pair build: copy
      stencil: none
      bin: none
  (7) compute rdf, occasional, copy from (1)
      attributes: half, newton on
      pair build: copy
      stencil: none
      bin: none
  (8) compute rdf, occasional, copy from (1)
      attributes: half, newton on
      pair build: copy
      stencil: none
      bin: none
  (9) compute rdf, occasional, copy from (1)
      attributes: half, newton on
      pair build: copy
      stencil: none
      bin: none
  (10) compute rdf, occasional, copy from (1)
      attributes: half, newton on
      pair build: copy
      stencil: none
      bin: none
  (11) compute rdf, occasional, copy from (1)
      attributes: half, newton on
      pair build: copy
      stencil: none
      bin: none
  (12) compute rdf, occasional, copy from (1)
      attributes: half, newton on
      pair build: copy
      stencil: none
      bin: none
PPPM initialization ...
  using 12-bit tables for long-range coulomb (src/kspace.cpp:332)
  G vector (1/distance) = 1.17008
  grid = 96 96 96
  stencil order = 5
  estimated absolute RMS force accuracy = 0.000129317
  estimated relative force accuracy = 0.000129317
  using double precision FFTW3
  3d grid and FFT values/proc = 9261 4608
WARNING: Neighbor exclusions used with KSpace solver may give inconsistent Coulombic energies (src/neighbor.cpp:486)
Neighbor list info ...
  update every 1 steps, delay 0 steps, check yes
  max neighbors/atom: 2000, page size: 100000
  master list distance cutoff = 2.8
  ghost atom cutoff = 2.8
  binsize = 1.4, bins = 24 24 24
  12 neighbor lists, perpetual/occasional/extra = 2 10 0
  (1) pair lj/cut, perpetual
      attributes: half, newton on
      pair build: half/bin/newton
      stencil: half/bin/3d/newton
      bin: standard
  (2) pair coul/long, perpetual, skip from (1)
      attributes: half, newton on
      pair build: skip
      stencil: none
      bin: none
  (3) compute rdf, occasional, copy from (1)
      attributes: half, newton on
      pair build: copy
      stencil: none
      bin: none
  (4) compute rdf, occasional, copy from (1)
      attributes: half, newton on
      pair build: copy
      stencil: none
      bin: none
  (5) compute rdf, occasional, copy from (1)
      attributes: half, newton on
      pair build: copy
      stencil: none
      bin: none
  (6) compute rdf, occasional, copy from (1)
      attributes: half, newton on
      pair build: copy
      stencil: none
      bin: none
  (7) compute rdf, occasional, copy from (1)
      attributes: half, newton on
      pair build: copy
      stencil: none
      bin: none
  (8) compute rdf, occasional, copy from (1)
      attributes: half, newton on
      pair build: copy
      stencil: none
      bin: none
  (9) compute rdf, occasional, copy from (1)
      attributes: half, newton on
      pair build: copy
      stencil: none
      bin: none
  (10) compute rdf, occasional, copy from (1)
      attributes: half, newton on
      pair build: copy
      stencil: none
      bin: none
  (11) compute rdf, occasional, copy from (1)
      attributes: half, newton on
      pair build: copy
      stencil: none
      bin: none
  (12) compute rdf, occasional, copy from (1)
      attributes: half, newton on
      pair build: copy
      stencil: none
      bin: none
Setting up Verlet run ...
  Unit style    : lj
  Current step  : 6000000
  Time step     : 0.005
Per MPI rank memory allocation (min/avg/max) = 18.82 | 19.27 | 19.87 Mbytes
Step Lx Ly Lz Press Pxx Pyy Pzz PotEng Temp 
 6000000    32.558679    32.558679    32.558679  -0.44992208   -0.5343642  -0.59054898  -0.22485305    1.7755048   0.79313933 
 6000010    33.209853    32.237896    32.237896  -0.15032017   -1.0283753   0.28976753   0.28764728    1.7805995   0.80429874 
 6000020    33.861026    31.926412    31.926412  -0.11657699   -1.1064596   0.39254203   0.36418656    1.8025452   0.81503985 
 6000030      34.5122    31.623785    31.623785  0.038270092   -1.1902083   0.62962757   0.67539102    1.8218427   0.82890503 
 6000040    35.163373    31.329604    31.329604   0.11732077   -1.2159198   0.78930822   0.77857384    1.8368183   0.84900991 
 6000050    35.814547    31.043482    31.043482   0.21421752   -1.1115906   0.80429636   0.94994679    1.8576805   0.86533882 
 6000060    36.465721     30.76506     30.76506   0.29625576   -1.0051132   0.89138545     1.002495     1.872902   0.88324286 
 6000070    37.116894    30.493997    30.493997   0.37555571  -0.96702538    1.0678746    1.0258179    1.8897875    0.8974157 
 6000080    37.768068    30.229975    30.229975   0.44022225  -0.91558357    1.1183822    1.1178681    1.9018995   0.91492423 
 6000090    38.419241    29.972694    29.972694   0.56141595  -0.75647931    1.2474667    1.1932605    1.9253268   0.92368361 
 6000100    39.070415    29.721872    29.721872   0.62522319  -0.69543645    1.2759523    1.2951537    1.9356869   0.94007365 
Loop time of 1.19826 on 216 procs for 100 steps with 27950 atoms

Performance: 36052.232 tau/day, 83.454 timesteps/s
99.9% CPU use with 216 MPI tasks x 1 OpenMP threads

MPI task timing breakdown:
Section |  min time  |  avg time  |  max time  |%varavg| %total
---------------------------------------------------------------
Pair    | 0.0090065  | 0.012842   | 0.029141   |   3.0 |  1.07
Bond    | 0.00012469 | 0.00023043 | 0.00038123 |   0.0 |  0.02
Kspace  | 0.8545     | 0.86642    | 0.87565    |   0.5 | 72.31
Neigh   | 0.036779   | 0.038816   | 0.041511   |   0.6 |  3.24
Comm    | 0.032567   | 0.039491   | 0.046478   |   1.3 |  3.30
Output  | 0.0039399  | 0.0097768  | 0.01305    |   1.2 |  0.82
Modify  | 0.11624    | 0.14003    | 0.19866    |   3.2 | 11.69
Other   |            | 0.09065    |            |       |  7.57

Nlocal:    129.398 ave 171 max 110 min
Histogram: 8 47 64 47 23 10 8 6 2 1
Nghost:    963.37 ave 1041 max 901 min
Histogram: 5 21 28 39 37 38 19 16 8 5
Neighs:    4747.65 ave 7713 max 3602 min
Histogram: 13 68 63 38 11 9 7 4 2 1

Total # of neighbors = 1025492
Ave neighs/atom = 36.6902
Ave special neighs/atom = 0.62254
Neighbor list builds = 49
Dangerous builds = 0
PPPM initialization ...
  using 12-bit tables for long-range coulomb (src/kspace.cpp:332)
  G vector (1/distance) = 1.17673
  grid = 120 90 90
  stencil order = 5
  estimated absolute RMS force accuracy = 0.000116565
  estimated relative force accuracy = 0.000116565
  using double precision FFTW3
  3d grid and FFT values/proc = 10000 4800
WARNING: Neighbor exclusions used with KSpace solver may give inconsistent Coulombic energies (src/neighbor.cpp:486)
Neighbor list info ...
  update every 1 steps, delay 0 steps, check yes
  max neighbors/atom: 2000, page size: 100000
  master list distance cutoff = 2.8
  ghost atom cutoff = 2.8
  binsize = 1.4, bins = 28 22 22
  12 neighbor lists, perpetual/occasional/extra = 2 10 0
  (1) pair lj/cut, perpetual
      attributes: half, newton on
      pair build: half/bin/newton
      stencil: half/bin/3d/newton
      bin: standard
  (2) pair coul/long, perpetual, skip from (1)
      attributes: half, newton on
      pair build: skip
      stencil: none
      bin: none
  (3) compute rdf, occasional, copy from (1)
      attributes: half, newton on
      pair build: copy
      stencil: none
      bin: none
  (4) compute rdf, occasional, copy from (1)
      attributes: half, newton on
      pair build: copy
      stencil: none
      bin: none
  (5) compute rdf, occasional, copy from (1)
      attributes: half, newton on
      pair build: copy
      stencil: none
      bin: none
  (6) compute rdf, occasional, copy from (1)
      attributes: half, newton on
      pair build: copy
      stencil: none
      bin: none
  (7) compute rdf, occasional, copy from (1)
      attributes: half, newton on
      pair build: copy
      stencil: none
      bin: none
  (8) compute rdf, occasional, copy from (1)
      attributes: half, newton on
      pair build: copy
      stencil: none
      bin: none
  (9) compute rdf, occasional, copy from (1)
      attributes: half, newton on
      pair build: copy
      stencil: none
      bin: none
  (10) compute rdf, occasional, copy from (1)
      attributes: half, newton on
      pair build: copy
      stencil: none
      bin: none
  (11) compute rdf, occasional, copy from (1)
      attributes: half, newton on
      pair build: copy
      stencil: none
      bin: none
  (12) compute rdf, occasional, copy from (1)
      attributes: half, newton on
      pair build: copy
      stencil: none
      bin: none
Setting up Verlet run ...
  Unit style    : lj
  Current step  : 6000100
  Time step     : 0.005
Per MPI rank memory allocation (min/avg/max) = 18.89 | 19.34 | 19.92 Mbytes
Step Lx Ly Lz Press Pxx Pyy Pzz PotEng Temp 
 6000100    39.070415    29.721872    29.721872    0.6172706  -0.80468173    1.4170057    1.2394878    1.9403321   0.94007365 
 6010000    39.070415    29.721872    29.721872  -0.22000863  -0.25191388  -0.27336648  -0.13474554    1.7731553   0.79661362 
 6020000    39.070415    29.721872    29.721872  -0.17661127  -0.10780189  -0.22975287  -0.19227904    1.7662134   0.80388505 
 6030000    39.070415    29.721872    29.721872  -0.22757464   -0.2263341  -0.20829898  -0.24809085    1.7719852   0.79447777 
 6040000    39.070415    29.721872    29.721872  -0.19840102  -0.21619204  -0.13272972   -0.2462813    1.7666582   0.79540513 
 6050000    39.070415    29.721872    29.721872  -0.16111702  -0.13565957  -0.21247608  -0.13521542    1.7755975   0.80433703 
 6060000    39.070415    29.721872    29.721872  -0.13876582 -0.088003894  -0.17412339  -0.15417018    1.7623276   0.79326569 
 6070000    39.070415    29.721872    29.721872  -0.18884209    -0.191441  -0.21401344  -0.16107184    1.7744286   0.79764803 
 6080000    39.070415    29.721872    29.721872  -0.18284972  -0.22839651  -0.14480097  -0.17535169    1.7659881   0.80084528 
 6090000    39.070415    29.721872    29.721872  -0.10735681 -0.091277183  -0.13336761 -0.097425644    1.7734577   0.79578177 
 6100000    39.070415    29.721872    29.721872  -0.13908793  -0.12522172  -0.12343228   -0.1686098    1.7731263    0.7997265 
 6100100    39.070415    29.721872    29.721872  -0.16001141  -0.18853842  -0.12667426  -0.16482154    1.7701659   0.80670787 
Loop time of 994.675 on 216 procs for 100000 steps with 27950 atoms

Performance: 43431.258 tau/day, 100.535 timesteps/s
99.9% CPU use with 216 MPI tasks x 1 OpenMP threads

MPI task timing breakdown:
Section |  min time  |  avg time  |  max time  |%varavg| %total
---------------------------------------------------------------
Pair    | 9.3961     | 12.942     | 31.259     |  86.5 |  1.30
Bond    | 0.16252    | 0.25362    | 0.36048    |   7.3 |  0.03
Kspace  | 880.62     | 900.34     | 910.56     |  21.9 | 90.52
Neigh   | 10.61      | 11.241     | 11.972     |   9.3 |  1.13
Comm    | 22.627     | 31.5       | 46.354     | 101.0 |  3.17
Output  | 0.038244   | 0.038285   | 0.038822   |   0.0 |  0.00
Modify  | 24.029     | 29.824     | 35.497     |  37.3 |  3.00
Other   |            | 8.538      |            |       |  0.86

Nlocal:    129.398 ave 184 max 111 min
Histogram: 22 68 67 29 15 7 1 5 1 1
Nghost:    963.009 ave 1057 max 891 min
Histogram: 6 9 29 51 46 39 22 9 4 1
Neighs:    4737.7 ave 8736 max 3655 min
Histogram: 40 88 49 15 11 5 5 1 1 1

Total # of neighbors = 1023344
Ave neighs/atom = 36.6134
Ave special neighs/atom = 0.62254
Neighbor list builds = 13435
Dangerous builds = 0
Total wall time: 19:26:51
