#version1, 300 polymer chains each 30 monomers long, with 100 sheets each with 19 monomers and 12400 solvent partices
28900 atoms
8700 bonds
0 angles
6 atom types
1 bond types

0.00000 34.00000  xlo xhi
0.00000 34.00000  ylo yhi
0.00000 34.00000  zlo zhi

 Atoms

1 0 5 0 0.500000 0.500000 0.500000
2 0 1 0 0.500000 1.600000 0.500000
3 0 1 0 0.500000 2.700000 0.500000
4 0 3 0 0.500000 3.800000 0.500000
5 0 5 0 0.500000 4.900000 0.500000
6 0 5 0 0.500000 6.000000 0.500000
7 0 5 0 0.500000 7.100000 0.500000
8 0 1 0 0.500000 8.200000 0.500000
9 0 3 0 0.500000 9.300000 0.500000
10 0 1 0 0.500000 10.400000 0.500000
11 0 1 0 0.500000 11.500000 0.500000
12 0 5 0 0.500000 12.600000 0.500000
13 0 1 0 0.500000 13.700000 0.500000
14 0 1 0 0.500000 14.800000 0.500000
15 0 5 0 0.500000 15.900000 0.500000
16 95 2 0 0.500000 17.000000 0.500000
17 95 2 0 0.500000 18.100000 0.500000
18 95 2 0 0.500000 19.200000 0.500000
19 95 2 0 0.500000 20.300000 0.500000
20 95 6 0 0.500000 21.400000 0.500000
21 95 2 0 0.500000 22.500000 0.500000
22 95 2 0 0.500000 23.600000 0.500000
23 95 2 0 0.500000 24.700000 0.500000
24 95 2 0 0.500000 25.800000 0.500000
25 95 6 0 0.500000 26.900000 0.500000
26 95 2 0 0.500000 28.000000 0.500000
27 95 2 0 0.500000 29.100000 0.500000
28 95 2 0 0.500000 30.200000 0.500000
29 95 2 0 0.500000 31.300000 0.500000
30 95 6 0 0.500000 32.400000 0.500000
31 95 2 0 1.600000 32.400000 0.500000
32 95 2 0 1.600000 31.300000 0.500000
33 95 2 0 1.600000 30.200000 0.500000
34 95 2 0 1.600000 29.100000 0.500000
35 95 6 0 1.600000 28.000000 0.500000
36 95 2 0 1.600000 26.900000 0.500000
37 95 2 0 1.600000 25.800000 0.500000
38 95 2 0 1.600000 24.700000 0.500000
39 95 2 0 1.600000 23.600000 0.500000
40 95 6 0 1.600000 22.500000 0.500000
41 95 2 0 1.600000 21.400000 0.500000
42 95 2 0 1.600000 20.300000 0.500000
43 95 2 0 1.600000 19.200000 0.500000
44 95 2 0 1.600000 18.100000 0.500000
45 95 6 0 1.600000 17.000000 0.500000
46 0 1 0 1.600000 15.900000 0.500000
47 0 1 0 1.600000 14.800000 0.500000
48 0 1 0 1.600000 13.700000 0.500000
49 0 1 0 1.600000 12.600000 0.500000
50 0 1 0 1.600000 11.500000 0.500000
51 0 3 0 1.600000 10.400000 0.500000
52 83 2 0 1.600000 9.300000 0.500000
53 83 2 0 1.600000 8.200000 0.500000
54 83 2 0 1.600000 7.100000 0.500000
55 83 2 0 1.600000 6.000000 0.500000
56 83 6 0 1.600000 4.900000 0.500000
57 83 2 0 1.600000 3.800000 0.500000
58 83 2 0 1.600000 2.700000 0.500000
59 83 2 0 1.600000 1.600000 0.500000
60 83 2 0 1.600000 0.500000 0.500000
61 83 6 0 2.700000 0.500000 0.500000
62 83 2 0 2.700000 1.600000 0.500000
63 83 2 0 2.700000 2.700000 0.500000
64 83 2 0 2.700000 3.800000 0.500000
65 83 2 0 2.700000 4.900000 0.500000
66 83 6 0 2.700000 6.000000 0.500000
67 83 2 0 2.700000 7.100000 0.500000
68 83 2 0 2.700000 8.200000 0.500000
69 83 2 0 2.700000 9.300000 0.500000
70 83 2 0 2.700000 10.400000 0.500000
71 83 6 0 2.700000 11.500000 0.500000
72 83 2 0 2.700000 12.600000 0.500000
73 83 2 0 2.700000 13.700000 0.500000
74 83 2 0 2.700000 14.800000 0.500000
75 83 2 0 2.700000 15.900000 0.500000
76 83 6 0 2.700000 17.000000 0.500000
77 83 2 0 2.700000 18.100000 0.500000
78 83 2 0 2.700000 19.200000 0.500000
79 83 2 0 2.700000 20.300000 0.500000
80 83 2 0 2.700000 21.400000 0.500000
81 83 6 0 2.700000 22.500000 0.500000
82 0 1 0 2.700000 23.600000 0.500000
83 0 1 0 2.700000 24.700000 0.500000
84 0 5 0 2.700000 25.800000 0.500000
85 0 3 0 2.700000 26.900000 0.500000
86 0 1 0 2.700000 28.000000 0.500000
87 0 1 0 2.700000 29.100000 0.500000
88 0 1 0 2.700000 30.200000 0.500000
89 0 1 0 2.700000 31.300000 0.500000
90 0 1 0 2.700000 32.400000 0.500000
91 0 1 0 3.800000 32.400000 0.500000
92 0 1 0 3.800000 31.300000 0.500000
93 0 1 0 3.800000 30.200000 0.500000
94 0 1 0 3.800000 29.100000 0.500000
95 0 1 0 3.800000 28.000000 0.500000
96 0 5 0 3.800000 26.900000 0.500000
97 0 1 0 3.800000 25.800000 0.500000
98 0 1 0 3.800000 24.700000 0.500000
99 0 1 0 3.800000 23.600000 0.500000
100 0 3 0 3.800000 22.500000 0.500000
101 130 2 0 3.800000 21.400000 0.500000
102 130 2 0 3.800000 20.300000 0.500000
103 130 2 0 3.800000 19.200000 0.500000
104 130 2 0 3.800000 18.100000 0.500000
105 130 6 0 3.800000 17.000000 0.500000
106 130 2 0 3.800000 15.900000 0.500000
107 130 2 0 3.800000 14.800000 0.500000
108 130 2 0 3.800000 13.700000 0.500000
109 130 2 0 3.800000 12.600000 0.500000
110 130 6 0 3.800000 11.500000 0.500000
111 130 2 0 3.800000 10.400000 0.500000
112 130 2 0 3.800000 9.300000 0.500000
113 130 2 0 3.800000 8.200000 0.500000
114 130 2 0 3.800000 7.100000 0.500000
115 130 6 0 3.800000 6.000000 0.500000
116 130 2 0 3.800000 4.900000 0.500000
117 130 2 0 3.800000 3.800000 0.500000
118 130 2 0 3.800000 2.700000 0.500000
119 130 2 0 3.800000 1.600000 0.500000
120 130 6 0 3.800000 0.500000 0.500000
121 130 2 0 4.900000 0.500000 0.500000
122 130 2 0 4.900000 1.600000 0.500000
123 130 2 0 4.900000 2.700000 0.500000
124 130 2 0 4.900000 3.800000 0.500000
125 130 6 0 4.900000 4.900000 0.500000
126 130 2 0 4.900000 6.000000 0.500000
127 130 2 0 4.900000 7.100000 0.500000
128 130 2 0 4.900000 8.200000 0.500000
129 130 2 0 4.900000 9.300000 0.500000
130 130 6 0 4.900000 10.400000 0.500000
131 0 1 0 4.900000 11.500000 0.500000
132 0 1 0 4.900000 12.600000 0.500000
133 0 1 0 4.900000 13.700000 0.500000
134 0 1 0 4.900000 14.800000 0.500000
135 0 1 0 4.900000 15.900000 0.500000
136 0 1 0 4.900000 17.000000 0.500000
137 0 5 0 4.900000 18.100000 0.500000
138 0 1 0 4.900000 19.200000 0.500000
139 0 1 0 4.900000 20.300000 0.500000
140 0 1 0 4.900000 21.400000 0.500000
141 0 5 0 4.900000 22.500000 0.500000
142 0 1 0 4.900000 23.600000 0.500000
143 0 5 0 4.900000 24.700000 0.500000
144 0 1 0 4.900000 25.800000 0.500000
145 0 1 0 4.900000 26.900000 0.500000
146 0 1 0 4.900000 28.000000 0.500000
147 0 5 0 4.900000 29.100000 0.500000
148 0 5 0 4.900000 30.200000 0.500000
149 0 5 0 4.900000 31.300000 0.500000
150 0 1 0 4.900000 32.400000 0.500000
151 0 1 0 6.000000 32.400000 0.500000
152 0 1 0 6.000000 31.300000 0.500000
153 0 1 0 6.000000 30.200000 0.500000
154 0 1 0 6.000000 29.100000 0.500000
155 0 1 0 6.000000 28.000000 0.500000
156 0 1 0 6.000000 26.900000 0.500000
157 0 1 0 6.000000 25.800000 0.500000
158 0 1 0 6.000000 24.700000 0.500000
159 0 1 0 6.000000 23.600000 0.500000
160 0 1 0 6.000000 22.500000 0.500000
161 0 1 0 6.000000 21.400000 0.500000
162 0 1 0 6.000000 20.300000 0.500000
163 0 1 0 6.000000 19.200000 0.500000
164 0 1 0 6.000000 18.100000 0.500000
165 0 1 0 6.000000 17.000000 0.500000
166 0 1 0 6.000000 15.900000 0.500000
167 0 5 0 6.000000 14.800000 0.500000
168 0 3 0 6.000000 13.700000 0.500000
169 0 1 0 6.000000 12.600000 0.500000
170 0 1 0 6.000000 11.500000 0.500000
171 0 1 0 6.000000 10.400000 0.500000
172 0 1 0 6.000000 9.300000 0.500000
173 0 1 0 6.000000 8.200000 0.500000
174 0 5 0 6.000000 7.100000 0.500000
175 0 1 0 6.000000 6.000000 0.500000
176 0 1 0 6.000000 4.900000 0.500000
177 0 1 0 6.000000 3.800000 0.500000
178 0 5 0 6.000000 2.700000 0.500000
179 0 1 0 6.000000 1.600000 0.500000
180 0 1 0 6.000000 0.500000 0.500000
181 0 1 0 7.100000 0.500000 0.500000
182 0 1 0 7.100000 1.600000 0.500000
183 0 5 0 7.100000 2.700000 0.500000
184 0 1 0 7.100000 3.800000 0.500000
185 0 1 0 7.100000 4.900000 0.500000
186 0 5 0 7.100000 6.000000 0.500000
187 0 1 0 7.100000 7.100000 0.500000
188 0 1 0 7.100000 8.200000 0.500000
189 0 5 0 7.100000 9.300000 0.500000
190 0 5 0 7.100000 10.400000 0.500000
191 0 1 0 7.100000 11.500000 0.500000
192 0 1 0 7.100000 12.600000 0.500000
193 0 1 0 7.100000 13.700000 0.500000
194 0 1 0 7.100000 14.800000 0.500000
195 0 1 0 7.100000 15.900000 0.500000
196 0 5 0 7.100000 17.000000 0.500000
197 0 5 0 7.100000 18.100000 0.500000
198 0 1 0 7.100000 19.200000 0.500000
199 77 2 0 7.100000 20.300000 0.500000
200 77 2 0 7.100000 21.400000 0.500000
201 77 2 0 7.100000 22.500000 0.500000
202 77 2 0 7.100000 23.600000 0.500000
203 77 6 0 7.100000 24.700000 0.500000
204 77 2 0 7.100000 25.800000 0.500000
205 77 2 0 7.100000 26.900000 0.500000
206 77 2 0 7.100000 28.000000 0.500000
207 77 2 0 7.100000 29.100000 0.500000
208 77 6 0 7.100000 30.200000 0.500000
209 77 2 0 7.100000 31.300000 0.500000
210 77 2 0 7.100000 32.400000 0.500000
211 77 2 0 8.200000 32.400000 0.500000
212 77 2 0 8.200000 31.300000 0.500000
213 77 6 0 8.200000 30.200000 0.500000
214 77 2 0 8.200000 29.100000 0.500000
215 77 2 0 8.200000 28.000000 0.500000
216 77 2 0 8.200000 26.900000 0.500000
217 77 2 0 8.200000 25.800000 0.500000
218 77 6 0 8.200000 24.700000 0.500000
219 77 2 0 8.200000 23.600000 0.500000
220 77 2 0 8.200000 22.500000 0.500000
221 77 2 0 8.200000 21.400000 0.500000
222 77 2 0 8.200000 20.300000 0.500000
223 77 6 0 8.200000 19.200000 0.500000
224 77 2 0 8.200000 18.100000 0.500000
225 77 2 0 8.200000 17.000000 0.500000
226 77 2 0 8.200000 15.900000 0.500000
227 77 2 0 8.200000 14.800000 0.500000
228 77 6 0 8.200000 13.700000 0.500000
229 0 1 0 8.200000 12.600000 0.500000
230 0 1 0 8.200000 11.500000 0.500000
231 0 1 0 8.200000 10.400000 0.500000
232 0 1 0 8.200000 9.300000 0.500000
233 0 1 0 8.200000 8.200000 0.500000
234 0 1 0 8.200000 7.100000 0.500000
235 0 5 0 8.200000 6.000000 0.500000
236 0 1 0 8.200000 4.900000 0.500000
237 0 5 0 8.200000 3.800000 0.500000
238 0 1 0 8.200000 2.700000 0.500000
239 0 1 0 8.200000 1.600000 0.500000
240 0 1 0 8.200000 0.500000 0.500000
241 0 1 0 9.300000 0.500000 0.500000
242 0 1 0 9.300000 1.600000 0.500000
243 0 1 0 9.300000 2.700000 0.500000
244 0 1 0 9.300000 3.800000 0.500000
245 0 5 0 9.300000 4.900000 0.500000
246 0 3 0 9.300000 6.000000 0.500000
247 0 5 0 9.300000 7.100000 0.500000
248 0 1 0 9.300000 8.200000 0.500000
249 0 1 0 9.300000 9.300000 0.500000
250 0 5 0 9.300000 10.400000 0.500000
251 0 1 0 9.300000 11.500000 0.500000
252 0 1 0 9.300000 12.600000 0.500000
253 0 1 0 9.300000 13.700000 0.500000
254 0 1 0 9.300000 14.800000 0.500000
255 0 1 0 9.300000 15.900000 0.500000
256 0 1 0 9.300000 17.000000 0.500000
257 0 1 0 9.300000 18.100000 0.500000
258 0 1 0 9.300000 19.200000 0.500000
259 0 1 0 9.300000 20.300000 0.500000
260 0 1 0 9.300000 21.400000 0.500000
261 0 5 0 9.300000 22.500000 0.500000
262 0 1 0 9.300000 23.600000 0.500000
263 0 1 0 9.300000 24.700000 0.500000
264 0 1 0 9.300000 25.800000 0.500000
265 0 1 0 9.300000 26.900000 0.500000
266 0 1 0 9.300000 28.000000 0.500000
267 0 1 0 9.300000 29.100000 0.500000
268 0 1 0 9.300000 30.200000 0.500000
269 0 1 0 9.300000 31.300000 0.500000
270 0 3 0 9.300000 32.400000 0.500000
271 17 2 0 10.400000 32.400000 0.500000
272 17 2 0 10.400000 31.300000 0.500000
273 17 2 0 10.400000 30.200000 0.500000
274 17 2 0 10.400000 29.100000 0.500000
275 17 6 0 10.400000 28.000000 0.500000
276 17 2 0 10.400000 26.900000 0.500000
277 17 2 0 10.400000 25.800000 0.500000
278 17 2 0 10.400000 24.700000 0.500000
279 17 2 0 10.400000 23.600000 0.500000
280 17 6 0 10.400000 22.500000 0.500000
281 17 2 0 10.400000 21.400000 0.500000
282 17 2 0 10.400000 20.300000 0.500000
283 17 2 0 10.400000 19.200000 0.500000
284 17 2 0 10.400000 18.100000 0.500000
285 17 6 0 10.400000 17.000000 0.500000
286 17 2 0 10.400000 15.900000 0.500000
287 17 2 0 10.400000 14.800000 0.500000
288 17 2 0 10.400000 13.700000 0.500000
289 17 2 0 10.400000 12.600000 0.500000
290 17 6 0 10.400000 11.500000 0.500000
291 17 2 0 10.400000 10.400000 0.500000
292 17 2 0 10.400000 9.300000 0.500000
293 17 2 0 10.400000 8.200000 0.500000
294 17 2 0 10.400000 7.100000 0.500000
295 17 6 0 10.400000 6.000000 0.500000
296 17 2 0 10.400000 4.900000 0.500000
297 17 2 0 10.400000 3.800000 0.500000
298 17 2 0 10.400000 2.700000 0.500000
299 17 2 0 10.400000 1.600000 0.500000
300 17 6 0 10.400000 0.500000 0.500000
301 0 1 0 11.500000 0.500000 0.500000
302 0 5 0 11.500000 1.600000 0.500000
303 0 5 0 11.500000 2.700000 0.500000
304 0 1 0 11.500000 3.800000 0.500000
305 0 5 0 11.500000 4.900000 0.500000
306 0 5 0 11.500000 6.000000 0.500000
307 0 3 0 11.500000 7.100000 0.500000
308 0 1 0 11.500000 8.200000 0.500000
309 0 5 0 11.500000 9.300000 0.500000
310 0 1 0 11.500000 10.400000 0.500000
311 0 1 0 11.500000 11.500000 0.500000
312 0 1 0 11.500000 12.600000 0.500000
313 0 1 0 11.500000 13.700000 0.500000
314 0 1 0 11.500000 14.800000 0.500000
315 0 1 0 11.500000 15.900000 0.500000
316 0 1 0 11.500000 17.000000 0.500000
317 0 1 0 11.500000 18.100000 0.500000
318 0 1 0 11.500000 19.200000 0.500000
319 0 1 0 11.500000 20.300000 0.500000
320 0 1 0 11.500000 21.400000 0.500000
321 0 1 0 11.500000 22.500000 0.500000
322 0 5 0 11.500000 23.600000 0.500000
323 0 1 0 11.500000 24.700000 0.500000
324 0 5 0 11.500000 25.800000 0.500000
325 0 3 0 11.500000 26.900000 0.500000
326 0 1 0 11.500000 28.000000 0.500000
327 0 1 0 11.500000 29.100000 0.500000
328 0 1 0 11.500000 30.200000 0.500000
329 0 1 0 11.500000 31.300000 0.500000
330 0 5 0 11.500000 32.400000 0.500000
331 0 1 0 12.600000 32.400000 0.500000
332 0 1 0 12.600000 31.300000 0.500000
333 0 5 0 12.600000 30.200000 0.500000
334 0 1 0 12.600000 29.100000 0.500000
335 0 1 0 12.600000 28.000000 0.500000
336 0 1 0 12.600000 26.900000 0.500000
337 0 1 0 12.600000 25.800000 0.500000
338 0 1 0 12.600000 24.700000 0.500000
339 0 3 0 12.600000 23.600000 0.500000
340 0 1 0 12.600000 22.500000 0.500000
341 0 1 0 12.600000 21.400000 0.500000
342 0 1 0 12.600000 20.300000 0.500000
343 0 1 0 12.600000 19.200000 0.500000
344 0 5 0 12.600000 18.100000 0.500000
345 0 1 0 12.600000 17.000000 0.500000
346 0 5 0 12.600000 15.900000 0.500000
347 0 1 0 12.600000 14.800000 0.500000
348 0 5 0 12.600000 13.700000 0.500000
349 0 5 0 12.600000 12.600000 0.500000
350 0 3 0 12.600000 11.500000 0.500000
351 0 1 0 12.600000 10.400000 0.500000
352 0 1 0 12.600000 9.300000 0.500000
353 0 1 0 12.600000 8.200000 0.500000
354 0 1 0 12.600000 7.100000 0.500000
355 0 1 0 12.600000 6.000000 0.500000
356 0 5 0 12.600000 4.900000 0.500000
357 0 1 0 12.600000 3.800000 0.500000
358 0 1 0 12.600000 2.700000 0.500000
359 0 5 0 12.600000 1.600000 0.500000
360 0 1 0 12.600000 0.500000 0.500000
361 0 1 0 13.700000 0.500000 0.500000
362 0 5 0 13.700000 1.600000 0.500000
363 0 1 0 13.700000 2.700000 0.500000
364 0 3 0 13.700000 3.800000 0.500000
365 0 1 0 13.700000 4.900000 0.500000
366 0 3 0 13.700000 6.000000 0.500000
367 0 1 0 13.700000 7.100000 0.500000
368 0 1 0 13.700000 8.200000 0.500000
369 0 1 0 13.700000 9.300000 0.500000
370 0 1 0 13.700000 10.400000 0.500000
371 0 5 0 13.700000 11.500000 0.500000
372 0 5 0 13.700000 12.600000 0.500000
373 0 1 0 13.700000 13.700000 0.500000
374 0 5 0 13.700000 14.800000 0.500000
375 0 1 0 13.700000 15.900000 0.500000
376 0 1 0 13.700000 17.000000 0.500000
377 0 1 0 13.700000 18.100000 0.500000
378 0 1 0 13.700000 19.200000 0.500000
379 0 1 0 13.700000 20.300000 0.500000
380 0 1 0 13.700000 21.400000 0.500000
381 0 3 0 13.700000 22.500000 0.500000
382 0 1 0 13.700000 23.600000 0.500000
383 0 1 0 13.700000 24.700000 0.500000
384 0 1 0 13.700000 25.800000 0.500000
385 0 5 0 13.700000 26.900000 0.500000
386 0 1 0 13.700000 28.000000 0.500000
387 0 1 0 13.700000 29.100000 0.500000
388 178 2 0 13.700000 30.200000 0.500000
389 178 2 0 13.700000 31.300000 0.500000
390 178 2 0 13.700000 32.400000 0.500000
391 178 2 0 14.800000 32.400000 0.500000
392 178 6 0 14.800000 31.300000 0.500000
393 178 2 0 14.800000 30.200000 0.500000
394 178 2 0 14.800000 29.100000 0.500000
395 178 2 0 14.800000 28.000000 0.500000
396 178 2 0 14.800000 26.900000 0.500000
397 178 6 0 14.800000 25.800000 0.500000
398 178 2 0 14.800000 24.700000 0.500000
399 178 2 0 14.800000 23.600000 0.500000
400 178 2 0 14.800000 22.500000 0.500000
401 178 2 0 14.800000 21.400000 0.500000
402 178 6 0 14.800000 20.300000 0.500000
403 178 2 0 14.800000 19.200000 0.500000
404 178 2 0 14.800000 18.100000 0.500000
405 178 2 0 14.800000 17.000000 0.500000
406 178 2 0 14.800000 15.900000 0.500000
407 178 6 0 14.800000 14.800000 0.500000
408 178 2 0 14.800000 13.700000 0.500000
409 178 2 0 14.800000 12.600000 0.500000
410 178 2 0 14.800000 11.500000 0.500000
411 178 2 0 14.800000 10.400000 0.500000
412 178 6 0 14.800000 9.300000 0.500000
413 178 2 0 14.800000 8.200000 0.500000
414 178 2 0 14.800000 7.100000 0.500000
415 178 2 0 14.800000 6.000000 0.500000
416 178 2 0 14.800000 4.900000 0.500000
417 178 6 0 14.800000 3.800000 0.500000
418 0 1 0 14.800000 2.700000 0.500000
419 0 1 0 14.800000 1.600000 0.500000
420 0 5 0 14.800000 0.500000 0.500000
421 0 1 0 15.900000 0.500000 0.500000
422 0 1 0 15.900000 1.600000 0.500000
423 0 1 0 15.900000 2.700000 0.500000
424 0 1 0 15.900000 3.800000 0.500000
425 0 5 0 15.900000 4.900000 0.500000
426 0 5 0 15.900000 6.000000 0.500000
427 0 1 0 15.900000 7.100000 0.500000
428 0 1 0 15.900000 8.200000 0.500000
429 0 1 0 15.900000 9.300000 0.500000
430 0 1 0 15.900000 10.400000 0.500000
431 0 3 0 15.900000 11.500000 0.500000
432 0 1 0 15.900000 12.600000 0.500000
433 0 3 0 15.900000 13.700000 0.500000
434 0 3 0 15.900000 14.800000 0.500000
435 0 5 0 15.900000 15.900000 0.500000
436 0 5 0 15.900000 17.000000 0.500000
437 0 1 0 15.900000 18.100000 0.500000
438 0 1 0 15.900000 19.200000 0.500000
439 0 1 0 15.900000 20.300000 0.500000
440 0 1 0 15.900000 21.400000 0.500000
441 0 1 0 15.900000 22.500000 0.500000
442 0 5 0 15.900000 23.600000 0.500000
443 0 1 0 15.900000 24.700000 0.500000
444 0 1 0 15.900000 25.800000 0.500000
445 0 1 0 15.900000 26.900000 0.500000
446 0 3 0 15.900000 28.000000 0.500000
447 0 1 0 15.900000 29.100000 0.500000
448 0 1 0 15.900000 30.200000 0.500000
449 0 1 0 15.900000 31.300000 0.500000
450 0 1 0 15.900000 32.400000 0.500000
451 0 1 0 17.000000 32.400000 0.500000
452 0 1 0 17.000000 31.300000 0.500000
453 236 2 0 17.000000 30.200000 0.500000
454 236 2 0 17.000000 29.100000 0.500000
455 236 2 0 17.000000 28.000000 0.500000
456 236 2 0 17.000000 26.900000 0.500000
457 236 6 0 17.000000 25.800000 0.500000
458 236 2 0 17.000000 24.700000 0.500000
459 236 2 0 17.000000 23.600000 0.500000
460 236 2 0 17.000000 22.500000 0.500000
461 236 2 0 17.000000 21.400000 0.500000
462 236 6 0 17.000000 20.300000 0.500000
463 236 2 0 17.000000 19.200000 0.500000
464 236 2 0 17.000000 18.100000 0.500000
465 236 2 0 17.000000 17.000000 0.500000
466 236 2 0 17.000000 15.900000 0.500000
467 236 6 0 17.000000 14.800000 0.500000
468 236 2 0 17.000000 13.700000 0.500000
469 236 2 0 17.000000 12.600000 0.500000
470 236 2 0 17.000000 11.500000 0.500000
471 236 2 0 17.000000 10.400000 0.500000
472 236 6 0 17.000000 9.300000 0.500000
473 236 2 0 17.000000 8.200000 0.500000
474 236 2 0 17.000000 7.100000 0.500000
475 236 2 0 17.000000 6.000000 0.500000
476 236 2 0 17.000000 4.900000 0.500000
477 236 6 0 17.000000 3.800000 0.500000
478 236 2 0 17.000000 2.700000 0.500000
479 236 2 0 17.000000 1.600000 0.500000
480 236 2 0 17.000000 0.500000 0.500000
481 236 2 0 18.100000 0.500000 0.500000
482 236 6 0 18.100000 1.600000 0.500000
483 0 1 0 18.100000 2.700000 0.500000
484 0 1 0 18.100000 3.800000 0.500000
485 0 3 0 18.100000 4.900000 0.500000
486 0 1 0 18.100000 6.000000 0.500000
487 0 1 0 18.100000 7.100000 0.500000
488 0 1 0 18.100000 8.200000 0.500000
489 0 3 0 18.100000 9.300000 0.500000
490 0 1 0 18.100000 10.400000 0.500000
491 0 1 0 18.100000 11.500000 0.500000
492 0 1 0 18.100000 12.600000 0.500000
493 0 1 0 18.100000 13.700000 0.500000
494 0 1 0 18.100000 14.800000 0.500000
495 0 1 0 18.100000 15.900000 0.500000
496 0 1 0 18.100000 17.000000 0.500000
497 0 3 0 18.100000 18.100000 0.500000
498 0 5 0 18.100000 19.200000 0.500000
499 0 1 0 18.100000 20.300000 0.500000
500 0 3 0 18.100000 21.400000 0.500000
501 0 1 0 18.100000 22.500000 0.500000
502 0 1 0 18.100000 23.600000 0.500000
503 0 1 0 18.100000 24.700000 0.500000
504 0 1 0 18.100000 25.800000 0.500000
505 0 1 0 18.100000 26.900000 0.500000
506 0 1 0 18.100000 28.000000 0.500000
507 0 1 0 18.100000 29.100000 0.500000
508 0 3 0 18.100000 30.200000 0.500000
509 0 5 0 18.100000 31.300000 0.500000
510 0 1 0 18.100000 32.400000 0.500000
511 0 3 0 19.200000 32.400000 0.500000
512 0 1 0 19.200000 31.300000 0.500000
513 0 1 0 19.200000 30.200000 0.500000
514 0 1 0 19.200000 29.100000 0.500000
515 0 5 0 19.200000 28.000000 0.500000
516 0 3 0 19.200000 26.900000 0.500000
517 0 1 0 19.200000 25.800000 0.500000
518 0 5 0 19.200000 24.700000 0.500000
519 0 5 0 19.200000 23.600000 0.500000
520 0 5 0 19.200000 22.500000 0.500000
521 0 1 0 19.200000 21.400000 0.500000
522 0 1 0 19.200000 20.300000 0.500000
523 0 5 0 19.200000 19.200000 0.500000
524 0 3 0 19.200000 18.100000 0.500000
525 0 1 0 19.200000 17.000000 0.500000
526 0 5 0 19.200000 15.900000 0.500000
527 0 1 0 19.200000 14.800000 0.500000
528 0 1 0 19.200000 13.700000 0.500000
529 0 3 0 19.200000 12.600000 0.500000
530 0 3 0 19.200000 11.500000 0.500000
531 0 1 0 19.200000 10.400000 0.500000
532 0 5 0 19.200000 9.300000 0.500000
533 0 1 0 19.200000 8.200000 0.500000
534 0 1 0 19.200000 7.100000 0.500000
535 0 1 0 19.200000 6.000000 0.500000
536 0 5 0 19.200000 4.900000 0.500000
537 0 1 0 19.200000 3.800000 0.500000
538 0 3 0 19.200000 2.700000 0.500000
539 0 5 0 19.200000 1.600000 0.500000
540 54 2 0 19.200000 0.500000 0.500000
541 54 2 0 20.300000 0.500000 0.500000
542 54 2 0 20.300000 1.600000 0.500000
543 54 2 0 20.300000 2.700000 0.500000
544 54 6 0 20.300000 3.800000 0.500000
545 54 2 0 20.300000 4.900000 0.500000
546 54 2 0 20.300000 6.000000 0.500000
547 54 2 0 20.300000 7.100000 0.500000
548 54 2 0 20.300000 8.200000 0.500000
549 54 6 0 20.300000 9.300000 0.500000
550 54 2 0 20.300000 10.400000 0.500000
551 54 2 0 20.300000 11.500000 0.500000
552 54 2 0 20.300000 12.600000 0.500000
553 54 2 0 20.300000 13.700000 0.500000
554 54 6 0 20.300000 14.800000 0.500000
555 54 2 0 20.300000 15.900000 0.500000
556 54 2 0 20.300000 17.000000 0.500000
557 54 2 0 20.300000 18.100000 0.500000
558 54 2 0 20.300000 19.200000 0.500000
559 54 6 0 20.300000 20.300000 0.500000
560 54 2 0 20.300000 21.400000 0.500000
561 54 2 0 20.300000 22.500000 0.500000
562 54 2 0 20.300000 23.600000 0.500000
563 54 2 0 20.300000 24.700000 0.500000
564 54 6 0 20.300000 25.800000 0.500000
565 54 2 0 20.300000 26.900000 0.500000
566 54 2 0 20.300000 28.000000 0.500000
567 54 2 0 20.300000 29.100000 0.500000
568 54 2 0 20.300000 30.200000 0.500000
569 54 6 0 20.300000 31.300000 0.500000
570 0 5 0 20.300000 32.400000 0.500000
571 0 1 0 21.400000 32.400000 0.500000
572 0 1 0 21.400000 31.300000 0.500000
573 0 1 0 21.400000 30.200000 0.500000
574 0 1 0 21.400000 29.100000 0.500000
575 0 1 0 21.400000 28.000000 0.500000
576 0 5 0 21.400000 26.900000 0.500000
577 0 1 0 21.400000 25.800000 0.500000
578 0 1 0 21.400000 24.700000 0.500000
579 0 1 0 21.400000 23.600000 0.500000
580 0 1 0 21.400000 22.500000 0.500000
581 0 5 0 21.400000 21.400000 0.500000
582 0 1 0 21.400000 20.300000 0.500000
583 0 1 0 21.400000 19.200000 0.500000
584 0 1 0 21.400000 18.100000 0.500000
585 0 3 0 21.400000 17.000000 0.500000
586 0 1 0 21.400000 15.900000 0.500000
587 0 1 0 21.400000 14.800000 0.500000
588 0 1 0 21.400000 13.700000 0.500000
589 0 1 0 21.400000 12.600000 0.500000
590 0 3 0 21.400000 11.500000 0.500000
591 0 5 0 21.400000 10.400000 0.500000
592 0 1 0 21.400000 9.300000 0.500000
593 0 1 0 21.400000 8.200000 0.500000
594 0 1 0 21.400000 7.100000 0.500000
595 0 1 0 21.400000 6.000000 0.500000
596 0 3 0 21.400000 4.900000 0.500000
597 0 1 0 21.400000 3.800000 0.500000
598 0 1 0 21.400000 2.700000 0.500000
599 0 5 0 21.400000 1.600000 0.500000
600 0 1 0 21.400000 0.500000 0.500000
601 0 1 0 22.500000 0.500000 0.500000
602 0 1 0 22.500000 1.600000 0.500000
603 288 2 0 22.500000 2.700000 0.500000
604 288 2 0 22.500000 3.800000 0.500000
605 288 2 0 22.500000 4.900000 0.500000
606 288 2 0 22.500000 6.000000 0.500000
607 288 6 0 22.500000 7.100000 0.500000
608 288 2 0 22.500000 8.200000 0.500000
609 288 2 0 22.500000 9.300000 0.500000
610 288 2 0 22.500000 10.400000 0.500000
611 288 2 0 22.500000 11.500000 0.500000
612 288 6 0 22.500000 12.600000 0.500000
613 288 2 0 22.500000 13.700000 0.500000
614 288 2 0 22.500000 14.800000 0.500000
615 288 2 0 22.500000 15.900000 0.500000
616 288 2 0 22.500000 17.000000 0.500000
617 288 6 0 22.500000 18.100000 0.500000
618 288 2 0 22.500000 19.200000 0.500000
619 288 2 0 22.500000 20.300000 0.500000
620 288 2 0 22.500000 21.400000 0.500000
621 288 2 0 22.500000 22.500000 0.500000
622 288 6 0 22.500000 23.600000 0.500000
623 288 2 0 22.500000 24.700000 0.500000
624 288 2 0 22.500000 25.800000 0.500000
625 288 2 0 22.500000 26.900000 0.500000
626 288 2 0 22.500000 28.000000 0.500000
627 288 6 0 22.500000 29.100000 0.500000
628 288 2 0 22.500000 30.200000 0.500000
629 288 2 0 22.500000 31.300000 0.500000
630 288 2 0 22.500000 32.400000 0.500000
631 288 2 0 23.600000 32.400000 0.500000
632 288 6 0 23.600000 31.300000 0.500000
633 0 1 0 23.600000 30.200000 0.500000
634 0 1 0 23.600000 29.100000 0.500000
635 0 1 0 23.600000 28.000000 0.500000
636 0 1 0 23.600000 26.900000 0.500000
637 0 5 0 23.600000 25.800000 0.500000
638 0 5 0 23.600000 24.700000 0.500000
639 0 1 0 23.600000 23.600000 0.500000
640 0 3 0 23.600000 22.500000 0.500000
641 0 1 0 23.600000 21.400000 0.500000
642 0 1 0 23.600000 20.300000 0.500000
643 0 1 0 23.600000 19.200000 0.500000
644 0 1 0 23.600000 18.100000 0.500000
645 0 1 0 23.600000 17.000000 0.500000
646 0 5 0 23.600000 15.900000 0.500000
647 0 5 0 23.600000 14.800000 0.500000
648 0 5 0 23.600000 13.700000 0.500000
649 0 5 0 23.600000 12.600000 0.500000
650 0 1 0 23.600000 11.500000 0.500000
651 0 3 0 23.600000 10.400000 0.500000
652 0 1 0 23.600000 9.300000 0.500000
653 0 3 0 23.600000 8.200000 0.500000
654 0 1 0 23.600000 7.100000 0.500000
655 0 1 0 23.600000 6.000000 0.500000
656 0 1 0 23.600000 4.900000 0.500000
657 0 1 0 23.600000 3.800000 0.500000
658 0 5 0 23.600000 2.700000 0.500000
659 0 1 0 23.600000 1.600000 0.500000
660 0 1 0 23.600000 0.500000 0.500000
661 0 1 0 24.700000 0.500000 0.500000
662 0 1 0 24.700000 1.600000 0.500000
663 0 5 0 24.700000 2.700000 0.500000
664 0 1 0 24.700000 3.800000 0.500000
665 0 1 0 24.700000 4.900000 0.500000
666 0 1 0 24.700000 6.000000 0.500000
667 0 5 0 24.700000 7.100000 0.500000
668 0 1 0 24.700000 8.200000 0.500000
669 0 1 0 24.700000 9.300000 0.500000
670 0 5 0 24.700000 10.400000 0.500000
671 0 3 0 24.700000 11.500000 0.500000
672 0 1 0 24.700000 12.600000 0.500000
673 0 5 0 24.700000 13.700000 0.500000
674 275 2 0 24.700000 14.800000 0.500000
675 275 2 0 24.700000 15.900000 0.500000
676 275 2 0 24.700000 17.000000 0.500000
677 275 2 0 24.700000 18.100000 0.500000
678 275 6 0 24.700000 19.200000 0.500000
679 275 2 0 24.700000 20.300000 0.500000
680 275 2 0 24.700000 21.400000 0.500000
681 275 2 0 24.700000 22.500000 0.500000
682 275 2 0 24.700000 23.600000 0.500000
683 275 6 0 24.700000 24.700000 0.500000
684 275 2 0 24.700000 25.800000 0.500000
685 275 2 0 24.700000 26.900000 0.500000
686 275 2 0 24.700000 28.000000 0.500000
687 275 2 0 24.700000 29.100000 0.500000
688 275 6 0 24.700000 30.200000 0.500000
689 275 2 0 24.700000 31.300000 0.500000
690 275 2 0 24.700000 32.400000 0.500000
691 275 2 0 25.800000 32.400000 0.500000
692 275 2 0 25.800000 31.300000 0.500000
693 275 6 0 25.800000 30.200000 0.500000
694 275 2 0 25.800000 29.100000 0.500000
695 275 2 0 25.800000 28.000000 0.500000
696 275 2 0 25.800000 26.900000 0.500000
697 275 2 0 25.800000 25.800000 0.500000
698 275 6 0 25.800000 24.700000 0.500000
699 275 2 0 25.800000 23.600000 0.500000
700 275 2 0 25.800000 22.500000 0.500000
701 275 2 0 25.800000 21.400000 0.500000
702 275 2 0 25.800000 20.300000 0.500000
703 275 6 0 25.800000 19.200000 0.500000
704 0 5 0 25.800000 18.100000 0.500000
705 0 1 0 25.800000 17.000000 0.500000
706 0 1 0 25.800000 15.900000 0.500000
707 0 1 0 25.800000 14.800000 0.500000
708 0 1 0 25.800000 13.700000 0.500000
709 0 1 0 25.800000 12.600000 0.500000
710 0 3 0 25.800000 11.500000 0.500000
711 0 1 0 25.800000 10.400000 0.500000
712 0 3 0 25.800000 9.300000 0.500000
713 0 1 0 25.800000 8.200000 0.500000
714 0 1 0 25.800000 7.100000 0.500000
715 0 1 0 25.800000 6.000000 0.500000
716 0 5 0 25.800000 4.900000 0.500000
717 0 5 0 25.800000 3.800000 0.500000
718 0 1 0 25.800000 2.700000 0.500000
719 0 1 0 25.800000 1.600000 0.500000
720 0 3 0 25.800000 0.500000 0.500000
721 0 1 0 26.900000 0.500000 0.500000
722 0 5 0 26.900000 1.600000 0.500000
723 0 1 0 26.900000 2.700000 0.500000
724 0 5 0 26.900000 3.800000 0.500000
725 0 1 0 26.900000 4.900000 0.500000
726 0 1 0 26.900000 6.000000 0.500000
727 132 2 0 26.900000 7.100000 0.500000
728 132 2 0 26.900000 8.200000 0.500000
729 132 2 0 26.900000 9.300000 0.500000
730 132 2 0 26.900000 10.400000 0.500000
731 132 6 0 26.900000 11.500000 0.500000
732 132 2 0 26.900000 12.600000 0.500000
733 132 2 0 26.900000 13.700000 0.500000
734 132 2 0 26.900000 14.800000 0.500000
735 132 2 0 26.900000 15.900000 0.500000
736 132 6 0 26.900000 17.000000 0.500000
737 132 2 0 26.900000 18.100000 0.500000
738 132 2 0 26.900000 19.200000 0.500000
739 132 2 0 26.900000 20.300000 0.500000
740 132 2 0 26.900000 21.400000 0.500000
741 132 6 0 26.900000 22.500000 0.500000
742 132 2 0 26.900000 23.600000 0.500000
743 132 2 0 26.900000 24.700000 0.500000
744 132 2 0 26.900000 25.800000 0.500000
745 132 2 0 26.900000 26.900000 0.500000
746 132 6 0 26.900000 28.000000 0.500000
747 132 2 0 26.900000 29.100000 0.500000
748 132 2 0 26.900000 30.200000 0.500000
749 132 2 0 26.900000 31.300000 0.500000
750 132 2 0 26.900000 32.400000 0.500000
751 132 6 0 28.000000 32.400000 0.500000
752 132 2 0 28.000000 31.300000 0.500000
753 132 2 0 28.000000 30.200000 0.500000
754 132 2 0 28.000000 29.100000 0.500000
755 132 2 0 28.000000 28.000000 0.500000
756 132 6 0 28.000000 26.900000 0.500000
757 0 5 0 28.000000 25.800000 0.500000
758 0 1 0 28.000000 24.700000 0.500000
759 0 1 0 28.000000 23.600000 0.500000
760 0 1 0 28.000000 22.500000 0.500000
761 0 1 0 28.000000 21.400000 0.500000
762 0 5 0 28.000000 20.300000 0.500000
763 0 5 0 28.000000 19.200000 0.500000
764 0 1 0 28.000000 18.100000 0.500000