ITEM: TIMESTEP
0
ITEM: NUMBER OF ATOMS
900
ITEM: BOX BOUNDS pp pp pp
0.0000000000000000e+00 3.4000000000000000e+01
0.0000000000000000e+00 3.4000000000000000e+01
0.0000000000000000e+00 3.4000000000000000e+01
ITEM: ATOMS id mol type x y z 
3 0 3 0.5 2.7 0.5 
2701 0 3 0.5 0.5 3.5 
2702 0 3 0.5 1.6 3.5 
2705 0 3 0.5 4.9 3.5 
4504 0 3 0.5 3.8 5.5 
5402 0 3 0.5 1.6 6.5 
5524 0 3 4.9 3.8 6.5 
7262 0 3 2.7 1.6 8.5 
7265 0 3 2.7 4.9 8.5 
8105 0 3 0.5 4.9 9.5 
9004 0 3 0.5 3.8 10.5 
9962 0 3 2.7 1.6 11.5 
11701 0 3 0.5 0.5 13.5 
11818 0 3 3.8 2.7 13.5 
11705 0 3 0.5 4.9 13.5 
13620 0 3 3.8 0.5 15.5 
16264 0 3 2.7 3.8 18.5 
16256 0 3 1.6 4.9 18.5 
17105 0 3 0.5 4.9 19.5 
18003 0 3 0.5 2.7 20.5 
18964 0 3 2.7 3.8 21.5 
22565 0 3 2.7 4.9 25.5 
23458 0 3 1.6 2.7 26.5 
23525 0 3 4.9 4.9 26.5 
24416 0 3 3.8 4.9 27.5 
26224 0 3 4.9 3.8 29.5 
10 0 3 0.5 10.4 0.5 
70 0 3 2.7 10.4 0.5 
909 0 3 0.5 9.3 1.5 
1011 0 3 3.8 10.4 1.5 
1928 0 3 4.9 8.2 2.5 
1929 0 3 4.9 9.3 2.5 
2753 0 3 1.6 8.2 3.5 
3607 0 3 0.5 7.1 4.5 
5453 0 3 1.6 8.2 6.5 
8214 0 3 3.8 7.1 9.5 
9006 0 3 0.5 6 10.5 
10011 0 3 3.8 10.4 11.5 
12608 0 3 0.5 8.2 14.5 
14455 0 3 1.6 6 16.5 
14469 0 3 2.7 9.3 16.5 
16313 0 3 3.8 8.2 18.5 
18054 0 3 1.6 7.1 20.5 
19027 0 3 4.9 7.1 21.5 
18953 0 3 1.6 8.2 21.5 
23406 0 3 0.5 6 26.5 
24351 0 3 1.6 10.4 27.5 
25209 0 3 0.5 9.3 28.5 
72 0 3 2.7 12.6 0.5 
1032 0 3 4.9 12.6 1.5 
2747 0 3 1.6 14.8 3.5 
4547 0 3 1.6 14.8 5.5 
5449 0 3 1.6 12.6 6.5 
5447 0 3 1.6 14.8 6.5 
6350 0 3 1.6 11.5 7.5 
6409 0 3 3.8 12.6 7.5 
6373 0 3 2.7 13.7 7.5 
6315 0 3 0.5 15.9 7.5 
8149 0 3 1.6 12.6 9.5 
8209 0 3 3.8 12.6 9.5 
10035 0 3 4.9 15.9 11.5 
10811 0 3 0.5 11.5 12.5 
11806 0 3 3.8 15.9 13.5 
12732 0 3 4.9 12.6 14.5 
12615 0 3 0.5 15.9 14.5 
15312 0 3 0.5 12.6 17.5 
15349 0 3 1.6 12.6 17.5 
15409 0 3 3.8 12.6 17.5 
17113 0 3 0.5 13.7 19.5 
18011 0 3 0.5 11.5 20.5 
18074 0 3 2.7 14.8 20.5 
18950 0 3 1.6 11.5 21.5 
18948 0 3 1.6 13.7 21.5 
19849 0 3 1.6 12.6 22.5 
20715 0 3 0.5 15.9 23.5 
20746 0 3 1.6 15.9 23.5 
21647 0 3 1.6 14.8 24.5 
21707 0 3 3.8 14.8 24.5 
23534 0 3 4.9 14.8 26.5 
24434 0 3 4.9 14.8 27.5 
26111 0 3 0.5 11.5 29.5 
26231 0 3 4.9 11.5 29.5 
26207 0 3 3.8 14.8 29.5 
2716 0 3 0.5 17 3.5 
3620 0 3 0.5 21.4 4.5 
4519 0 3 0.5 20.3 5.5 
4541 0 3 1.6 21.4 5.5 
5445 0 3 1.6 17 6.5 
10038 0 3 4.9 19.2 11.5 
10904 0 3 3.8 18.1 12.5 
11779 0 3 2.7 20.3 13.5 
11839 0 3 4.9 20.3 13.5 
11841 0 3 4.9 22.5 13.5 
13517 0 3 0.5 18.1 15.5 
16277 0 3 2.7 18.1 18.5 
17177 0 3 2.7 18.1 19.5 
18019 0 3 0.5 20.3 20.5 
18079 0 3 2.7 20.3 20.5 
18976 0 3 2.7 17 21.5 
18942 0 3 1.6 20.3 21.5 
21700 0 3 3.8 22.5 24.5 
23477 0 3 2.7 18.1 26.5 
23421 0 3 0.5 22.5 26.5 
24345 0 3 1.6 17 27.5 
24441 0 3 4.9 22.5 27.5 
25305 0 3 3.8 17 28.5 
25303 0 3 3.8 19.2 28.5 
25300 0 3 3.8 22.5 28.5 
26117 0 3 0.5 18.1 29.5 
3625 0 3 0.5 26.9 4.5 
4642 0 3 4.9 23.6 5.5 
4535 0 3 1.6 28 5.5 
5437 0 3 1.6 25.8 6.5 
5497 0 3 3.8 25.8 6.5 
9144 0 3 4.9 25.8 10.5 
11722 0 3 0.5 23.6 13.5 
11737 0 3 1.6 25.8 13.5 
11846 0 3 4.9 28 13.5 
12686 0 3 2.7 28 14.5 
13536 0 3 1.6 26.9 15.5 
14499 0 3 3.8 23.6 16.5 
14436 0 3 1.6 26.9 16.5 
16299 0 3 3.8 23.6 18.5 
17245 0 3 4.9 26.9 19.5 
18938 0 3 1.6 24.7 21.5 
18984 0 3 2.7 25.8 21.5 
19945 0 3 4.9 26.9 22.5 
21696 0 3 3.8 26.9 24.5 
22523 0 3 0.5 24.7 25.5 
22537 0 3 1.6 25.8 25.5 
22644 0 3 4.9 25.8 25.5 
23439 0 3 1.6 23.6 26.5 
23497 0 3 3.8 25.8 26.5 
23485 0 3 2.7 26.9 26.5 
25238 0 3 1.6 24.7 28.5 
26199 0 3 3.8 23.6 29.5 
1831 0 3 1.6 32.4 2.5 
1890 0 3 2.7 32.4 2.5 
3687 0 3 2.7 29.1 4.5 
4589 0 3 2.7 31.3 5.5 
6387 0 3 2.7 29.1 7.5 
7293 0 3 3.8 30.2 8.5 
9149 0 3 4.9 31.3 10.5 
14434 0 3 1.6 29.1 16.5 
18093 0 3 3.8 30.2 20.5 
19947 0 3 4.9 29.1 22.5 
19829 0 3 0.5 31.3 22.5 
22529 0 3 0.5 31.3 25.5 
23428 0 3 0.5 30.2 26.5 
23489 0 3 2.7 31.3 26.5 
24329 0 3 0.5 31.3 27.5 
1980 0 3 6 0.5 2.5 
2883 0 3 7.1 2.7 3.5 
4800 0 3 10.4 0.5 5.5 
4676 0 3 6 4.9 5.5 
6598 0 3 10.4 2.7 7.5 
7444 0 3 9.3 3.8 8.5 
8282 0 3 7.1 1.6 9.5 
9296 0 3 10.4 4.9 10.5 
10199 0 3 10.4 1.6 11.5 
10084 0 3 7.1 3.8 11.5 
12839 0 3 8.2 1.6 14.5 
13741 0 3 9.3 0.5 15.5 
13796 0 3 10.4 4.9 15.5 
15479 0 3 6 1.6 17.5 
17278 0 3 6 2.7 19.5 
19078 0 3 6 2.7 21.5 
20942 0 3 9.3 1.6 23.5 
22800 0 3 10.4 0.5 25.5 
24544 0 3 9.3 3.8 27.5 
24485 0 3 7.1 4.9 27.5 
25380 0 3 6 0.5 28.5 
25376 0 3 6 4.9 28.5 
25496 0 3 10.4 4.9 28.5 
26397 0 3 10.4 3.8 29.5 
188 0 3 7.1 8.2 0.5 
1134 0 3 8.2 7.1 1.5 
1132 0 3 8.2 9.3 1.5 
3772 0 3 6 9.3 4.5 
4731 0 3 8.2 10.4 5.5 
8289 0 3 7.1 9.3 9.5 
9171 0 3 6 10.4 10.5 
10088 0 3 7.1 8.2 11.5 
10089 0 3 7.1 9.3 11.5 
14572 0 3 6 9.3 16.5 
15591 0 3 10.4 10.4 17.5 
16386 0 3 7.1 6 18.5 
19988 0 3 7.1 8.2 22.5 
20091 0 3 10.4 10.4 22.5 
21892 0 3 10.4 9.3 24.5 
24531 0 3 8.2 10.4 27.5 
25449 0 3 9.3 9.3 28.5 
25491 0 3 10.4 10.4 28.5 
170 0 3 6 11.5 0.5 
1091 0 3 7.1 11.5 1.5 
2051 0 3 9.3 11.5 2.5 
2053 0 3 9.3 13.7 2.5 
2870 0 3 6 11.5 3.5 
2926 0 3 8.2 15.9 3.5 
4693 0 3 7.1 13.7 5.5 
5569 0 3 6 12.6 6.5 
5567 0 3 6 14.8 6.5 
6491 0 3 7.1 11.5 7.5 
7393 0 3 7.1 13.7 8.5 
7428 0 3 8.2 13.7 8.5 
8329 0 3 8.2 12.6 9.5 
9289 0 3 10.4 12.6 10.5 
9168 0 3 6 13.7 10.5 
9286 0 3 10.4 15.9 10.5 
11870 0 3 6 11.5 13.5 
11926 0 3 8.2 15.9 13.5 
12792 0 3 7.1 12.6 14.5 
13790 0 3 10.4 11.5 15.5 
13727 0 3 8.2 14.8 15.5 
13754 0 3 9.3 14.8 15.5 
13726 0 3 8.2 15.9 15.5 
14594 0 3 7.1 14.8 16.5 
16489 0 3 10.4 12.6 18.5 
16487 0 3 10.4 14.8 18.5 
17330 0 3 8.2 11.5 19.5 
17293 0 3 7.1 13.7 19.5 
17386 0 3 10.4 15.9 19.5 
19153 0 3 9.3 13.7 21.5 
19188 0 3 10.4 13.7 21.5 
19154 0 3 9.3 14.8 21.5 
20929 0 3 8.2 12.6 23.5 
21791 0 3 7.1 11.5 24.5 
21890 0 3 10.4 11.5 24.5 
22790 0 3 10.4 11.5 25.5 
22668 0 3 6 13.7 25.5 
23595 0 3 7.1 15.9 26.5 
24493 0 3 7.1 13.7 27.5 
24586 0 3 10.4 15.9 27.5 
26291 0 3 7.1 11.5 29.5 
200 0 3 7.1 21.4 0.5 
2056 0 3 9.3 17 2.5 
2922 0 3 8.2 20.3 3.5 
3800 0 3 7.1 21.4 4.5 
4785 0 3 10.4 17 5.5 
4664 0 3 6 18.1 5.5 
6557 0 3 9.3 18.1 7.5 
6520 0 3 8.2 22.5 7.5 
9283 0 3 10.4 19.2 10.5 
9281 0 3 10.4 21.4 10.5 
10963 0 3 6 19.2 12.5 
11958 0 3 9.3 19.2 13.5 
11960 0 3 9.3 21.4 13.5 
12797 0 3 7.1 18.1 14.5 
12821 0 3 8.2 21.4 14.5 
14660 0 3 9.3 21.4 16.5 
15583 0 3 10.4 19.2 17.5 
16421 0 3 8.2 21.4 18.5 
17265 0 3 6 17 19.5 
17325 0 3 8.2 17 19.5 
17323 0 3 8.2 19.2 19.5 
19061 0 3 6 21.4 21.5 
19060 0 3 6 22.5 21.5 
19180 0 3 10.4 22.5 21.5 
19998 0 3 7.1 19.2 22.5 
20957 0 3 9.3 18.1 23.5 
21764 0 3 6 18.1 24.5 
22756 0 3 9.3 17 25.5 
22663 0 3 6 19.2 25.5 
24496 0 3 7.1 17 27.5 
24499 0 3 7.1 20.3 27.5 
26382 0 3 10.4 20.3 29.5 
219 0 3 8.2 23.6 0.5 
279 0 3 10.4 23.6 0.5 
157 0 3 6 25.8 0.5 
156 0 3 6 26.9 0.5 
265 0 3 9.3 26.9 0.5 
2855 0 3 6 28 3.5 
2906 0 3 7.1 28 3.5 
3815 0 3 8.2 28 4.5 
4778 0 3 10.4 24.7 5.5 
5556 0 3 6 26.9 6.5 
6503 0 3 7.1 24.7 7.5 
6578 0 3 10.4 24.7 7.5 
9218 0 3 8.2 24.7 10.5 
10119 0 3 8.2 23.6 11.5 
11916 0 3 8.2 26.9 13.5 
12804 0 3 7.1 25.8 14.5 
13775 0 3 10.4 28 15.5 
17376 0 3 10.4 26.9 19.5 
19059 0 3 6 23.6 21.5 
19118 0 3 8.2 24.7 21.5 
20015 0 3 8.2 28 22.5 
20902 0 3 7.1 23.6 23.5 
20964 0 3 9.3 25.8 23.5 
20906 0 3 7.1 28 23.5 
20975 0 3 10.4 28 23.5 
23558 0 3 6 24.7 26.5 
26256 0 3 6 26.9 29.5 
26376 0 3 10.4 26.9 29.5 
26255 0 3 6 28 29.5 
269 0 3 9.3 31.3 0.5 
2912 0 3 8.2 31.3 3.5 
3814 0 3 8.2 29.1 4.5 
4713 0 3 8.2 30.2 5.5 
4709 0 3 7.1 31.3 5.5 
4769 0 3 9.3 31.3 5.5 
7354 0 3 6 29.1 8.5 
7351 0 3 6 32.4 8.5 
8254 0 3 6 29.1 9.5 
8367 0 3 9.3 29.1 9.5 
9270 0 3 9.3 32.4 10.5 
10169 0 3 9.3 31.3 11.5 
10172 0 3 10.4 31.3 11.5 
13767 0 3 9.3 29.1 15.5 
13769 0 3 9.3 31.3 15.5 
13772 0 3 10.4 31.3 15.5 
15452 0 3 6 31.3 17.5 
20014 0 3 8.2 29.1 22.5 
20853 0 3 6 30.2 23.5 
21867 0 3 9.3 29.1 24.5 
22708 0 3 7.1 30.2 25.5 
22709 0 3 7.1 31.3 25.5 
25470 0 3 9.3 32.4 28.5 
1260 0 3 12.6 0.5 1.5 
4802 0 3 11.5 1.6 5.5 
4922 0 3 15.9 1.6 5.5 
6601 0 3 11.5 0.5 7.5 
7565 0 3 13.7 4.9 8.5 
8460 0 3 12.6 0.5 9.5 
8403 0 3 11.5 2.7 9.5 
9305 0 3 11.5 4.9 10.5 
10201 0 3 11.5 0.5 11.5 
10320 0 3 14.8 0.5 11.5 
11161 0 3 13.7 0.5 12.5 
12059 0 3 12.6 1.6 13.5 
12065 0 3 13.7 4.9 13.5 
12965 0 3 13.7 4.9 14.5 
14823 0 3 15.9 2.7 16.5 
16504 0 3 11.5 3.8 18.5 
16564 0 3 13.7 3.8 18.5 
19320 0 3 14.8 0.5 21.5 
19263 0 3 13.7 2.7 21.5 
21061 0 3 13.7 0.5 23.5 
21125 0 3 15.9 4.9 23.5 
22858 0 3 12.6 2.7 25.5 
23702 0 3 11.5 1.6 26.5 
25622 0 3 15.9 1.6 28.5 
1327 0 3 15.9 7.1 1.5 
1269 0 3 13.7 9.3 1.5 
2228 0 3 15.9 8.2 2.5 
3113 0 3 14.8 8.2 3.5 
4014 0 3 14.8 7.1 4.5 
5710 0 3 11.5 10.4 6.5 
8406 0 3 11.5 6 9.5 
9415 0 3 14.8 6 10.5 
9307 0 3 11.5 7.1 10.5 
9310 0 3 11.5 10.4 10.5 
10326 0 3 15.9 6 11.5 
10330 0 3 15.9 10.4 11.5 
12066 0 3 13.7 6 13.5 
12008 0 3 11.5 8.2 13.5 
12010 0 3 11.5 10.4 13.5 
12953 0 3 12.6 8.2 14.5 
14707 0 3 11.5 7.1 16.5 
18355 0 3 12.6 6 20.5 
20107 0 3 11.5 7.1 22.5 
21051 0 3 12.6 10.4 23.5 
22014 0 3 14.8 7.1 24.5 
21953 0 3 12.6 8.2 24.5 
21910 0 3 11.5 10.4 24.5 
23768 0 3 13.7 8.2 26.5 
24727 0 3 15.9 7.1 27.5 
24730 0 3 15.9 10.4 27.5 
26514 0 3 14.8 7.1 29.5 
1272 0 3 13.7 12.6 1.5 
2207 0 3 14.8 14.8 2.5 
2235 0 3 15.9 15.9 2.5 
3013 0 3 11.5 13.7 3.5 
3911 0 3 11.5 11.5 4.5 
4875 0 3 13.7 15.9 5.5 
5711 0 3 11.5 11.5 6.5 
6732 0 3 15.9 12.6 7.5 
7515 0 3 11.5 15.9 8.5 
8447 0 3 12.6 14.8 9.5 
9311 0 3 11.5 11.5 10.5 
9374 0 3 13.7 14.8 10.5 
12073 0 3 13.7 13.7 13.5 
12950 0 3 12.6 11.5 14.5 
13035 0 3 15.9 15.9 14.5 
20172 0 3 13.7 12.6 22.5 
20235 0 3 15.9 15.9 22.5 
21912 0 3 11.5 12.6 24.5 
21949 0 3 12.6 12.6 24.5 
24732 0 3 15.9 12.6 27.5 
25632 0 3 15.9 12.6 28.5 
26509 0 3 14.8 12.6 29.5 
26506 0 3 14.8 15.9 29.5 
321 0 3 11.5 22.5 0.5 
1337 0 3 15.9 18.1 1.5 
3103 0 3 14.8 19.2 3.5 
4037 0 3 15.9 18.1 4.5 
3918 0 3 11.5 19.2 4.5 
3942 0 3 12.6 20.3 4.5 
3921 0 3 11.5 22.5 4.5 
4902 0 3 14.8 20.3 5.5 
4880 0 3 13.7 21.4 5.5 
5744 0 3 12.6 18.1 6.5 
6736 0 3 15.9 17 7.5 
6641 0 3 12.6 21.4 7.5 
7543 0 3 12.6 19.2 8.5 
7542 0 3 12.6 20.3 8.5 
8504 0 3 14.8 18.1 9.5 
11143 0 3 12.6 19.2 12.5 
12077 0 3 13.7 18.1 13.5 
12079 0 3 13.7 20.3 13.5 
12916 0 3 11.5 17 14.5 
13036 0 3 15.9 17 14.5 
12918 0 3 11.5 19.2 14.5 
12978 0 3 13.7 19.2 14.5 
14743 0 3 12.6 19.2 16.5 
14840 0 3 15.9 21.4 16.5 
18340 0 3 12.6 22.5 20.5 
19216 0 3 11.5 17 21.5 
19219 0 3 11.5 20.3 21.5 
21105 0 3 14.8 17 23.5 
22845 0 3 12.6 17 25.5 
23717 0 3 11.5 18.1 26.5 
23800 0 3 14.8 22.5 26.5 
26418 0 3 11.5 19.2 29.5 
399 0 3 14.8 23.6 0.5 
337 0 3 12.6 25.8 0.5 
2243 0 3 15.9 24.7 2.5 
2196 0 3 14.8 26.9 2.5 
4045 0 3 15.9 26.9 4.5 
4897 0 3 14.8 25.8 5.5 
5722 0 3 11.5 23.6 6.5 
5795 0 3 14.8 28 6.5 
7536 0 3 12.6 26.9 8.5 
7595 0 3 14.8 28 8.5 
10223 0 3 11.5 24.7 11.5 
13898 0 3 14.8 24.7 15.5 
13836 0 3 12.6 26.9 15.5 
17423 0 3 11.5 24.7 19.5 
21143 0 3 15.9 24.7 23.5 
26544 0 3 15.9 25.8 29.5 
1287 0 3 13.7 29.1 1.5 
1228 0 3 11.5 30.2 1.5 
1288 0 3 13.7 30.2 1.5 
1232 0 3 12.6 31.3 1.5 
2128 0 3 11.5 30.2 2.5 
2130 0 3 11.5 32.4 2.5 
2190 0 3 13.7 32.4 2.5 
3092 0 3 14.8 31.3 3.5 
5729 0 3 11.5 31.3 6.5 
5792 0 3 14.8 31.3 6.5 
6693 0 3 14.8 30.2 7.5 
7532 0 3 12.6 31.3 8.5 
9329 0 3 11.5 31.3 10.5 
10228 0 3 11.5 30.2 11.5 
11250 0 3 15.9 32.4 12.5 
12989 0 3 13.7 31.3 14.5 
13049 0 3 15.9 31.3 14.5 
12930 0 3 11.5 32.4 14.5 
14727 0 3 11.5 29.1 16.5 
15688 0 3 13.7 30.2 17.5 
15691 0 3 14.8 32.4 17.5 
16530 0 3 11.5 32.4 18.5 
17491 0 3 14.8 32.4 19.5 
19288 0 3 13.7 30.2 21.5 
23734 0 3 12.6 29.1 26.5 
482 0 3 18.1 1.6 0.5 
602 0 3 22.5 1.6 0.5 
478 0 3 17 2.7 0.5 
2341 0 3 20.3 0.5 2.5 
4199 0 3 21.4 1.6 4.5 
4978 0 3 17 2.7 5.5 
5044 0 3 20.3 3.8 5.5 
5936 0 3 19.2 4.9 6.5 
6841 0 3 20.3 0.5 7.5 
6782 0 3 18.1 1.6 7.5 
7796 0 3 21.4 4.9 8.5 
8583 0 3 18.1 2.7 9.5 
8643 0 3 20.3 2.7 9.5 
8698 0 3 21.4 2.7 9.5 
8636 0 3 19.2 4.9 9.5 
9537 0 3 19.2 3.8 10.5 
10376 0 3 17 4.9 11.5 
12296 0 3 21.4 4.9 13.5 
15898 0 3 21.4 2.7 17.5 
15896 0 3 21.4 4.9 17.5 
18544 0 3 20.3 3.8 20.5 
18476 0 3 17 4.9 20.5 
18605 0 3 22.5 4.9 20.5 
19440 0 3 19.2 0.5 21.5 
19497 0 3 21.4 3.8 21.5 
20281 0 3 18.1 0.5 22.5 
20338 0 3 19.2 2.7 22.5 
20397 0 3 21.4 3.8 22.5 
21299 0 3 21.4 1.6 23.5 
21178 0 3 17 2.7 23.5 
21185 0 3 18.1 4.9 23.5 
22080 0 3 17 0.5 24.5 
22200 0 3 21.4 0.5 24.5 
23099 0 3 21.4 1.6 25.5 
23103 0 3 22.5 2.7 25.5 
23940 0 3 19.2 0.5 26.5 
23877 0 3 17 3.8 26.5 
23884 0 3 18.1 3.8 26.5 
24779 0 3 17 1.6 27.5 
25803 0 3 22.5 2.7 28.5 
26644 0 3 20.3 3.8 29.5 
26576 0 3 17 4.9 29.5 
606 0 3 22.5 6 0.5 
534 0 3 19.2 7.1 0.5 
2406 0 3 22.5 6 2.5 
2331 0 3 19.2 10.4 2.5 
4086 0 3 18.1 6 4.5 
5110 0 3 22.5 10.4 5.5 
6009 0 3 22.5 9.3 6.5 
6848 0 3 20.3 8.2 7.5 
7687 0 3 18.1 7.1 8.5 
7809 0 3 22.5 9.3 8.5 
8695 0 3 21.4 6 9.5 
11333 0 3 19.2 8.2 12.5 
12173 0 3 17 8.2 13.5 
12171 0 3 17 10.4 13.5 
13195 0 3 21.4 6 14.5 
13191 0 3 21.4 10.4 14.5 
15894 0 3 21.4 7.1 17.5 
15831 0 3 19.2 10.4 17.5 
18550 0 3 20.3 10.4 20.5 
19507 0 3 22.5 7.1 21.5 
21295 0 3 21.4 6 23.5 
22075 0 3 17 6 24.5 
22146 0 3 20.3 6 24.5 
22208 0 3 22.5 8.2 24.5 
23933 0 3 19.2 8.2 26.5 
23948 0 3 20.3 8.2 26.5 
23872 0 3 17 9.3 26.5 
24910 0 3 22.5 10.4 27.5 
25674 0 3 17 7.1 28.5 
26633 0 3 19.2 8.2 29.5 
26648 0 3 20.3 8.2 29.5 
494 0 3 18.1 14.8 0.5 
1366 0 3 17 15.9 1.5 
2329 0 3 19.2 12.6 2.5 
2353 0 3 20.3 13.7 2.5 
3195 0 3 18.1 15.9 3.5 
4212 0 3 22.5 12.6 4.5 
5113 0 3 22.5 13.7 5.5 
5893 0 3 18.1 13.7 6.5 
5987 0 3 21.4 14.8 6.5 
6826 0 3 19.2 15.9 7.5 
8651 0 3 20.3 11.5 9.5 
8629 0 3 19.2 12.6 9.5 
8628 0 3 19.2 13.7 9.5 
9612 0 3 22.5 12.6 10.5 
9468 0 3 17 13.7 10.5 
9554 0 3 20.3 14.8 10.5 
11326 0 3 19.2 15.9 12.5 
13188 0 3 21.4 13.7 14.5 
18467 0 3 17 14.8 20.5 
19369 0 3 17 12.6 21.5 
19368 0 3 17 13.7 21.5 
19486 0 3 21.4 15.9 21.5 
22128 0 3 19.2 13.7 24.5 
22187 0 3 21.4 14.8 24.5 
23111 0 3 22.5 11.5 25.5 
23086 0 3 21.4 15.9 25.5 
23869 0 3 17 12.6 26.5 
24792 0 3 18.1 12.6 27.5 
24768 0 3 17 13.7 27.5 
24915 0 3 22.5 15.9 27.5 
25668 0 3 17 13.7 28.5 
26626 0 3 19.2 15.9 29.5 
521 0 3 19.2 21.4 0.5 
2420 0 3 22.5 21.4 2.5 
3256 0 3 20.3 17 3.5 
3198 0 3 18.1 19.2 3.5 
5117 0 3 22.5 18.1 5.5 
5983 0 3 21.4 19.2 6.5 
5982 0 3 21.4 20.3 6.5 
6882 0 3 21.4 20.3 7.5 
6801 0 3 18.1 22.5 7.5 
7664 0 3 17 18.1 8.5 
7760 0 3 20.3 21.4 8.5 
8624 0 3 19.2 18.1 9.5 
9465 0 3 17 17 10.5 
14862 0 3 17 20.3 16.5 
14922 0 3 19.2 20.3 16.5 
15883 0 3 21.4 19.2 17.5 
15919 0 3 22.5 20.3 17.5 
16700 0 3 18.1 21.4 18.5 
18621 0 3 22.5 22.5 20.5 
21196 0 3 18.1 17 23.5 
23020 0 3 19.2 22.5 25.5 
23897 0 3 18.1 18.1 26.5 
24763 0 3 17 19.2 27.5 
503 0 3 18.1 24.7 0.5 
1418 0 3 19.2 24.7 1.5 
2365 0 3 20.3 26.9 2.5 
3265 0 3 20.3 26.9 3.5 
4226 0 3 22.5 28 4.5 
5124 0 3 22.5 25.8 5.5 
5966 0 3 20.3 28 6.5 
6862 0 3 20.3 23.6 7.5 
7779 0 3 21.4 23.6 8.5 
7765 0 3 20.3 26.9 8.5 
7825 0 3 22.5 26.9 8.5 
8679 0 3 21.4 23.6 9.5 
8664 0 3 20.3 25.8 9.5 
9459 0 3 17 23.6 10.5 
9518 0 3 19.2 24.7 10.5 
9625 0 3 22.5 26.9 10.5 
10356 0 3 17 26.9 11.5 
14006 0 3 18.1 28 15.5 
15864 0 3 20.3 25.8 17.5 
16826 0 3 22.5 28 18.5 
18502 0 3 18.1 23.6 20.5 
21219 0 3 19.2 23.6 23.5 
22059 0 3 17 23.6 24.5 
22178 0 3 21.4 24.7 24.5 
23902 0 3 18.1 23.6 26.5 
24818 0 3 19.2 24.7 27.5 
25659 0 3 17 23.6 28.5 
26557 0 3 17 25.8 29.5 
513 0 3 19.2 30.2 0.5 
573 0 3 21.4 30.2 0.5 
1352 0 3 17 31.3 1.5 
2313 0 3 19.2 30.2 2.5 
2371 0 3 21.4 32.4 2.5 
4170 0 3 20.3 32.4 4.5 
5974 0 3 21.4 29.1 6.5 
5911 0 3 19.2 32.4 6.5 
5971 0 3 21.4 32.4 6.5 
7712 0 3 19.2 31.3 8.5 
10474 0 3 21.4 29.1 11.5 
13174 0 3 21.4 29.1 14.5 
14070 0 3 20.3 32.4 15.5 
15028 0 3 22.5 30.2 16.5 
16829 0 3 22.5 31.3 18.5 
17667 0 3 20.3 29.1 19.5 
17553 0 3 17 30.2 19.5 
17673 0 3 21.4 30.2 19.5 
19467 0 3 20.3 29.1 21.5 
22173 0 3 21.4 30.2 24.5 
25767 0 3 20.3 29.1 28.5 
1618 0 3 25.8 2.7 1.5 
1624 0 3 26.9 3.8 1.5 
2464 0 3 24.7 3.8 2.5 
3359 0 3 23.6 1.6 3.5 
7857 0 3 23.6 3.8 8.5 
9720 0 3 25.8 0.5 10.5 
9718 0 3 25.8 2.7 10.5 
9778 0 3 28 2.7 10.5 
9716 0 3 25.8 4.9 10.5 
10619 0 3 25.8 1.6 11.5 
14218 0 3 25.8 2.7 15.5 
14225 0 3 26.9 4.9 15.5 
15061 0 3 24.7 0.5 16.5 
16021 0 3 26.9 0.5 17.5 
15963 0 3 24.7 2.7 17.5 
15964 0 3 24.7 3.8 17.5 
16861 0 3 24.7 0.5 18.5 
16921 0 3 26.9 0.5 18.5 
18718 0 3 25.8 2.7 20.5 
18723 0 3 26.9 2.7 20.5 
20460 0 3 23.6 0.5 22.5 
22260 0 3 23.6 0.5 24.5 
23225 0 3 26.9 4.9 25.5 
24178 0 3 28 2.7 26.5 
25080 0 3 28 0.5 27.5 
26823 0 3 26.9 2.7 29.5 
726 0 3 26.9 6 0.5 
1613 0 3 25.8 8.2 1.5 
1629 0 3 26.9 9.3 1.5 
2574 0 3 28 7.1 2.5 
4315 0 3 25.8 6 4.5 
6954 0 3 23.6 7.1 7.5 
6952 0 3 23.6 9.3 7.5 
7914 0 3 25.8 7.1 8.5 
8871 0 3 28 10.4 9.5 
9712 0 3 25.8 9.3 10.5 
12370 0 3 24.7 10.4 13.5 
12411 0 3 25.8 10.4 13.5 
13266 0 3 24.7 6 14.5 
14275 0 3 28 6 15.5 
15173 0 3 28 8.2 16.5 
15171 0 3 28 10.4 16.5 
15967 0 3 24.7 7.1 17.5 
16866 0 3 24.7 6 18.5 
16867 0 3 24.7 7.1 18.5 
16913 0 3 25.8 8.2 18.5 
17767 0 3 24.7 7.1 19.5 
17828 0 3 26.9 8.2 19.5 
18726 0 3 26.9 6 20.5 
19614 0 3 25.8 7.1 21.5 
22269 0 3 24.7 9.3 24.5 
24115 0 3 25.8 6 26.5 
24068 0 3 24.7 8.2 26.5 
2450 0 3 23.6 11.5 2.5 
2570 0 3 28 11.5 2.5 
3373 0 3 24.7 13.7 3.5 
4332 0 3 26.9 12.6 4.5 
4248 0 3 23.6 13.7 4.5 
4247 0 3 23.6 14.8 4.5 
5210 0 3 25.8 11.5 5.5 
5206 0 3 25.8 15.9 5.5 
8749 0 3 23.6 12.6 9.5 
8747 0 3 23.6 14.8 9.5 
9768 0 3 28 13.7 10.5 
12409 0 3 25.8 12.6 13.5 
12348 0 3 23.6 13.7 13.5 
15050 0 3 23.6 11.5 16.5 
15108 0 3 25.8 13.7 16.5 
19632 0 3 26.9 12.6 21.5 
19634 0 3 26.9 14.8 21.5 
20569 0 3 28 12.6 22.5 
20568 0 3 28 13.7 22.5 
21410 0 3 25.8 11.5 23.5 
22333 0 3 26.9 13.7 24.5 
22335 0 3 26.9 15.9 24.5 
23150 0 3 23.6 11.5 25.5 
23232 0 3 26.9 12.6 25.5 
24108 0 3 25.8 13.7 26.5 
25906 0 3 25.8 15.9 28.5 
26831 0 3 26.9 11.5 29.5 
644 0 3 23.6 18.1 0.5 
701 0 3 25.8 21.4 0.5 
1662 0 3 28 20.3 1.5 
1661 0 3 28 21.4 1.5 
3345 0 3 23.6 17 3.5 
5177 0 3 24.7 18.1 5.5 
8836 0 3 26.9 17 9.5 
8865 0 3 28 17 9.5 
9676 0 3 24.7 17 10.5 
10577 0 3 24.7 18.1 11.5 
12461 0 3 28 21.4 13.5 
13336 0 3 26.9 17 14.5 
13340 0 3 26.9 21.4 14.5 
14265 0 3 28 17 15.5 
16036 0 3 26.9 17 17.5 
16878 0 3 24.7 19.2 18.5 
16961 0 3 28 21.4 18.5 
17744 0 3 23.6 18.1 19.5 
17802 0 3 25.8 20.3 19.5 
18765 0 3 28 17 20.5 
18700 0 3 25.8 22.5 20.5 
21380 0 3 24.7 21.4 23.5 
21400 0 3 25.8 22.5 23.5 
23145 0 3 23.6 17 25.5 
23179 0 3 24.7 20.3 25.5 
24161 0 3 28 21.4 26.5 
25005 0 3 25.8 17 27.5 
25878 0 3 24.7 19.2 28.5 
25881 0 3 24.7 22.5 28.5 
26781 0 3 24.7 22.5 29.5 
695 0 3 25.8 28 0.5 
1645 0 3 26.9 26.9 1.5 
2542 0 3 26.9 23.6 2.5 
2483 0 3 24.7 24.7 2.5 
2435 0 3 23.6 28 2.5 
3336 0 3 23.6 26.9 3.5 
4342 0 3 26.9 23.6 4.5 
4358 0 3 28 24.7 4.5 
5246 0 3 26.9 28 5.5 
8855 0 3 28 28 9.5 
9698 0 3 25.8 24.7 10.5 
10595 0 3 25.8 28 11.5 
11543 0 3 26.9 24.7 12.5 
14242 0 3 26.9 23.6 15.5 
19582 0 3 24.7 23.6 21.5 
19537 0 3 23.6 25.8 21.5 
21444 0 3 26.9 25.8 23.5 
23243 0 3 26.9 24.7 25.5 
23255 0 3 28 28 25.5 
24086 0 3 24.7 28 26.5 
24155 0 3 28 28 26.5 
24986 0 3 24.7 28 27.5 
8848 0 3 26.9 30.2 9.5 
11554 0 3 28 29.1 12.5 
14247 0 3 26.9 29.1 15.5 
18631 0 3 23.6 32.4 20.5 
20492 0 3 25.8 31.3 22.5 
20490 0 3 24.7 32.4 22.5 
21387 0 3 24.7 29.1 23.5 
23189 0 3 24.7 31.3 25.5 
24031 0 3 23.6 32.4 26.5 
24990 0 3 24.7 32.4 27.5 
1796 0 3 32.4 4.9 1.5 
2699 0 3 32.4 1.6 2.5 
6296 0 3 32.4 4.9 6.5 
7982 0 3 29.1 1.6 8.5 
8097 0 3 32.4 3.8 8.5 
8999 0 3 32.4 1.6 9.5 
8998 0 3 32.4 2.7 9.5 
10740 0 3 30.2 0.5 11.5 
10682 0 3 29.1 1.6 11.5 
10797 0 3 32.4 3.8 11.5 
11699 0 3 32.4 1.6 12.5 
11697 0 3 32.4 3.8 12.5 
12598 0 3 32.4 2.7 13.5 
13384 0 3 29.1 3.8 14.5 
14396 0 3 32.4 4.9 15.5 
17882 0 3 29.1 1.6 19.5 
17999 0 3 32.4 1.6 19.5 
18836 0 3 30.2 4.9 20.5 
20639 0 3 30.2 1.6 22.5 
20583 0 3 29.1 2.7 22.5 
20585 0 3 29.1 4.9 22.5 
22441 0 3 31.3 0.5 24.5 
22500 0 3 32.4 0.5 24.5 
24298 0 3 32.4 2.7 26.5 
24296 0 3 32.4 4.9 26.5 
25143 0 3 31.3 2.7 27.5 
25084 0 3 29.1 3.8 27.5 
26940 0 3 30.2 0.5 29.5 
788 0 3 29.1 8.2 0.5 
5349 0 3 31.3 9.3 5.5 
9790 0 3 29.1 10.4 10.5 
10687 0 3 29.1 7.1 11.5 
10748 0 3 31.3 8.2 11.5 
11695 0 3 32.4 6 12.5 
11632 0 3 30.2 9.3 12.5 
12535 0 3 30.2 6 13.5 
14347 0 3 31.3 7.1 15.5 
21594 0 3 32.4 7.1 23.5 
21549 0 3 31.3 9.3 23.5 
22387 0 3 29.1 7.1 24.5 
24188 0 3 29.1 8.2 26.5 
25132 0 3 30.2 9.3 27.5 
25090 0 3 29.1 10.4 27.5 
26048 0 3 31.3 8.2 28.5 
26946 0 3 31.3 6 29.5 
26933 0 3 30.2 8.2 29.5 
829 0 3 30.2 12.6 0.5 
2628 0 3 30.2 13.7 2.5 
2626 0 3 30.2 15.9 2.5 
5326 0 3 30.2 15.9 5.5 
6191 0 3 29.1 11.5 6.5 
6286 0 3 32.4 15.9 6.5 
8055 0 3 31.3 15.9 8.5 
9829 0 3 30.2 12.6 10.5 
10790 0 3 32.4 11.5 11.5 
10692 0 3 29.1 12.6 11.5 
13486 0 3 32.4 15.9 14.5 
16994 0 3 29.1 14.8 18.5 
21493 0 3 29.1 13.7 23.5 
21553 0 3 31.3 13.7 23.5 
24227 0 3 30.2 14.8 26.5 
24226 0 3 30.2 15.9 26.5 
25128 0 3 30.2 13.7 27.5 
25995 0 3 29.1 15.9 28.5 
2684 0 3 32.4 18.1 2.5 
2660 0 3 31.3 21.4 2.5 
4398 0 3 29.1 19.2 4.5 
4422 0 3 30.2 20.3 4.5 
4460 0 3 31.3 21.4 4.5 
4420 0 3 30.2 22.5 4.5 
5324 0 3 30.2 18.1 5.5 
6224 0 3 30.2 18.1 6.5 
6199 0 3 29.1 20.3 6.5 
6280 0 3 32.4 22.5 6.5 
7101 0 3 29.1 22.5 7.5 
8058 0 3 31.3 19.2 8.5 
8896 0 3 29.1 17 9.5 
8983 0 3 32.4 19.2 9.5 
14299 0 3 29.1 20.3 15.5 
14359 0 3 31.3 20.3 15.5 
14360 0 3 31.3 21.4 15.5 
15196 0 3 29.1 17 16.5 
15281 0 3 32.4 21.4 16.5 
17900 0 3 29.1 21.4 19.5 
18798 0 3 29.1 19.2 20.5 
19759 0 3 31.3 20.3 21.5 
21560 0 3 31.3 21.4 23.5 
22398 0 3 29.1 19.2 24.5 
23356 0 3 31.3 17 25.5 
23359 0 3 31.3 20.3 25.5 
24280 0 3 32.4 22.5 26.5 
26000 0 3 29.1 21.4 28.5 
1776 0 3 32.4 26.9 1.5 
2615 0 3 30.2 28 2.5 
5315 0 3 30.2 28 5.5 
7179 0 3 32.4 23.6 7.5 
8063 0 3 31.3 24.7 8.5 
8077 0 3 32.4 25.8 8.5 
8066 0 3 31.3 28 8.5 
8963 0 3 31.3 24.7 9.5 
8904 0 3 29.1 25.8 9.5 
12576 0 3 32.4 26.9 13.5 
15278 0 3 32.4 24.7 16.5 
23303 0 3 29.1 24.7 25.5 
24217 0 3 30.2 25.8 26.5 
1772 0 3 32.4 31.3 1.5 
4407 0 3 29.1 29.1 4.5 
6272 0 3 32.4 31.3 6.5 
6211 0 3 30.2 32.4 6.5 
7109 0 3 29.1 31.3 7.5 
9810 0 3 29.1 32.4 10.5 
15268 0 3 31.3 30.2 16.5 
15209 0 3 29.1 31.3 16.5 
15269 0 3 31.3 31.3 16.5 
15271 0 3 32.4 32.4 16.5 
26070 0 3 31.3 32.4 28.5 
ITEM: TIMESTEP
100000
ITEM: NUMBER OF ATOMS
900
ITEM: BOX BOUNDS pp pp pp
0.0000000000000000e+00 3.4000000000000000e+01
0.0000000000000000e+00 3.4000000000000000e+01
0.0000000000000000e+00 3.4000000000000000e+01
ITEM: ATOMS id mol type x y z 
269 0 3 5.4144 2.62038 0.19251 
4589 0 3 2.81411 3.96991 0.715035 
2753 0 3 1.0872 3.64873 1.90466 
4693 0 3 4.71335 4.33059 1.89898 
8066 0 3 4.36718 1.66609 5.53117 
5402 0 3 2.46265 1.23064 4.79284 
5710 0 3 5.3981 4.05852 0.698419 
2705 0 3 1.04846 1.78318 6.49925 
4504 0 3 2.4319 3.71073 7.16235 
2699 0 3 1.89361 4.19299 7.99852 
6373 0 3 3.07094 4.80309 7.84869 
7265 0 3 5.25975 4.06938 8.65788 
4676 0 3 2.06228 5.17199 5.72822 
8999 0 3 4.69887 3.64274 12.2493 
9415 0 3 5.24912 0.756406 13.6578 
12598 0 3 3.71767 2.83172 14.1108 
11701 0 3 3.50646 3.63094 14.9826 
10089 0 3 4.38003 3.89453 14.1974 
16386 0 3 3.9631 1.75002 16.4844 
18093 0 3 1.62329 2.11415 19.173 
16921 0 3 1.06081 4.50857 19.5105 
14572 0 3 2.90824 5.39634 17.4204 
23458 0 3 0.410149 0.805865 23.8666 
15271 0 3 2.93085 0.332771 23.8017 
20853 0 3 4.37583 0.785311 23.6281 
22644 0 3 2.73211 2.6428 24.372 
22529 0 3 0.424133 4.47896 26.5179 
20906 0 3 5.21711 1.19971 27.8153 
1929 0 3 0.0304442 5.34647 25.8394 
24485 0 3 5.64802 3.91612 26.2349 
23489 0 3 3.3595 0.0518077 31.9306 
26291 0 3 5.28467 1.38548 30.2499 
24329 0 3 1.27876 1.59446 29.698 
3625 0 3 2.07791 2.03396 30.6185 
6296 0 3 2.85277 3.05421 33.8655 
3607 0 3 0.754882 6.10961 2.57848 
3772 0 3 2.99464 7.19538 6.96096 
12732 0 3 4.31757 7.47664 6.82581 
8329 0 3 5.49445 7.70835 7.13171 
5453 0 3 0.433238 9.30011 6.5756 
9149 0 3 0.747258 7.52115 8.92394 
8367 0 3 3.47802 8.21525 9.2868 
8214 0 3 1.20795 8.01302 10.0124 
11632 0 3 0.588397 10.3911 10.8494 
6350 0 3 1.29526 10.6823 11.9526 
9790 0 3 1.24859 7.48951 12.1989 
9006 0 3 4.51657 7.92252 12.9415 
10011 0 3 3.98365 7.77633 13.9972 
16994 0 3 0.757791 8.74402 20.1109 
18003 0 3 2.02387 6.26766 21.6168 
20091 0 3 5.13681 10.1345 22.5927 
14396 0 3 1.41319 9.82005 24.4299 
2747 0 3 4.3356 11.2382 28.9755 
1928 0 3 1.30751 6.0027 30.1181 
3 0 3 1.45822 7.80032 29.2032 
4713 0 3 2.06779 5.83505 32.5208 
10084 0 3 4.48107 6.08206 32.8575 
72 0 3 1.49574 13.2317 0.23053 
2684 0 3 4.01976 12.5322 2.64856 
4541 0 3 1.88714 14.8026 1.94251 
6491 0 3 2.49639 13.3048 4.79747 
10963 0 3 5.44948 14.3179 5.25248 
7179 0 3 2.13413 16.5219 0.0287552 
15312 0 3 0.349878 15.3754 9.42318 
4664 0 3 3.21918 15.248 6.10774 
8209 0 3 1.63161 16.742 7.50713 
7428 0 3 0.774993 12.6624 8.1599 
9829 0 3 0.168358 13.9133 8.05877 
11806 0 3 3.6882 13.5569 10.5951 
4547 0 3 4.21461 16.9114 6.15886 
15349 0 3 1.02105 14.1421 15.6215 
14594 0 3 4.32402 16.0076 16.1069 
10035 0 3 2.6739 12.6372 17.4048 
16256 0 3 1.97715 14.0551 21.5994 
18950 0 3 1.1509 15.5482 21.6847 
24499 0 3 3.5183 13.7962 23.8043 
19988 0 3 5.10937 14.0323 22.7417 
14469 0 3 2.46043 13.364 24.1381 
19849 0 3 2.97073 16.2131 23.9679 
23534 0 3 3.2648 15.6839 28.3332 
1011 0 3 2.55303 15.3246 29.3821 
1032 0 3 5.14085 16.7508 32.1104 
25128 0 3 0.936668 14.121 31.3538 
5567 0 3 4.75735 13.259 33.3849 
23406 0 3 3.24361 11.5462 30.6329 
6520 0 3 5.48557 18.9395 5.01339 
4460 0 3 1.44553 19.19 1.6494 
9281 0 3 5.56586 21.3889 5.10082 
6199 0 3 3.93589 17.7077 2.04793 
4422 0 3 2.85212 20.459 3.53354 
26199 0 3 4.03646 20.7552 3.59264 
7354 0 3 3.07588 22.2014 3.88946 
5445 0 3 0.586168 22.4168 1.46232 
8077 0 3 0.21418 21.9879 9.42207 
9289 0 3 4.47912 19.1384 7.2409 
15281 0 3 2.52311 20.4582 7.57723 
5326 0 3 2.83107 17.7157 8.94927 
12797 0 3 2.10478 22.1688 9.41802 
14499 0 3 5.36321 18.9729 10.5352 
13517 0 3 4.5717 20.6532 11.5469 
17330 0 3 1.59396 20.793 14.58 
26207 0 3 0.565936 17.015 22.1959 
19998 0 3 4.49396 20.4768 18.8522 
19154 0 3 5.6511 19.116 17.6445 
17265 0 3 3.52888 19.762 20.6999 
12821 0 3 4.87731 21.1437 19.9038 
18019 0 3 0.583554 21.5631 21.0402 
21764 0 3 3.26604 20.3646 22.3246 
20746 0 3 5.46697 20.4083 21.9864 
19061 0 3 3.05389 17.5717 24.0587 
21493 0 3 1.79974 20.9889 24.2722 
20569 0 3 0.525655 18.6566 26.0981 
18976 0 3 5.04996 22.5803 27.6493 
170 0 3 2.81973 20.2839 29.1133 
2626 0 3 0.850436 18.2261 33.6332 
4420 0 3 4.65881 23.5215 1.76111 
4519 0 3 1.19659 25.8815 3.84664 
26117 0 3 1.73816 23.1934 0.0748799 
10038 0 3 4.91042 24.9466 6.07289 
16277 0 3 0.534427 23.8217 14.3106 
18079 0 3 3.37613 26.2718 16.2485 
11841 0 3 4.89144 28.0155 15.3911 
14436 0 3 0.843367 27.4553 19.2322 
19060 0 3 2.11687 26.0903 20.5266 
19059 0 3 0.534985 27.5526 20.5118 
22663 0 3 4.6243 24.6445 24.1263 
19945 0 3 0.561088 27.597 24.0355 
24434 0 3 0.635187 23.4691 25.1838 
200 0 3 5.05166 23.785 24.9189 
25300 0 3 5.45244 24.9139 25.1478 
24345 0 3 3.85633 27.1334 26.9298 
25209 0 3 2.34672 22.725 31.4852 
24161 0 3 0.899605 25.8553 31.3974 
4535 0 3 3.01791 31.8353 0.277973 
2855 0 3 3.93091 32.29 1.26952 
26256 0 3 0.856252 33.473 1.16441 
5556 0 3 5.65719 30.5621 3.03299 
2906 0 3 0.685051 31.6796 2.64568 
11697 0 3 0.434274 32.3821 3.6545 
3815 0 3 2.39353 31.0766 7.4814 
4769 0 3 3.75941 31.0768 7.30075 
4709 0 3 2.13785 32.0324 6.59876 
9962 0 3 0.259921 33.2321 7.7404 
5497 0 3 2.82017 30.2949 9.80899 
14347 0 3 1.2697 33.3665 13.6714 
13536 0 3 0.862146 30.356 15.0693 
11846 0 3 0.739464 32.9712 11.5369 
13620 0 3 5.30645 32.969 22.1568 
23439 0 3 4.59505 33.5432 20.3067 
19829 0 3 0.518096 33.9508 19.0253 
18984 0 3 2.1387 32.2636 27.7529 
19947 0 3 1.94575 29.364 23.3422 
18942 0 3 3.26419 29.331 23.4699 
20014 0 3 3.18563 33.4379 23.0914 
23359 0 3 0.631356 30.4606 24.7202 
21696 0 3 2.61738 31.3697 26.0604 
24441 0 3 5.34994 28.9901 26.7114 
24280 0 3 0.974827 29.3649 26.7313 
156 0 3 3.34573 33.9016 28.4762 
23421 0 3 2.83761 29.1746 30.0891 
5437 0 3 2.62675 29.6481 31.3315 
1890 0 3 10.4327 0.426361 1.82173 
7982 0 3 6.17986 0.831593 4.69419 
9270 0 3 6.94845 1.6201 4.20655 
1980 0 3 6.72964 3.79898 4.78999 
9311 0 3 11.2859 1.47721 1.72359 
4731 0 3 8.24152 3.95883 6.27087 
6503 0 3 8.74001 1.76701 8.96637 
8282 0 3 10.3564 3.19208 10.0398 
12066 0 3 7.91331 1.30866 11.3149 
7565 0 3 8.7162 0.61595 11.9538 
15479 0 3 6.84502 3.15757 12.7904 
8254 0 3 9.08868 0.917376 14.0618 
14707 0 3 5.89621 1.82773 16.6221 
11818 0 3 6.3255 3.13265 18.0915 
10169 0 3 6.29235 4.86462 18.0756 
13767 0 3 10.698 0.795873 19.3127 
14823 0 3 10.4795 2.74091 20.8538 
21867 0 3 9.00008 1.69601 20.7993 
19288 0 3 8.4803 4.9001 21.6 
26397 0 3 9.38641 5.1302 23.6158 
20975 0 3 9.78703 3.23461 23.9205 
18355 0 3 10.0374 3.91681 24.992 
23525 0 3 7.91879 2.15404 26.4685 
23702 0 3 9.07322 1.15617 27.8425 
22800 0 3 10.3481 0.0604485 24.7065 
22709 0 3 7.82368 3.91101 29.4234 
2051 0 3 8.91199 4.05559 30.122 
1269 0 3 9.49494 5.16383 29.5864 
19027 0 3 6.59153 4.20896 30.6913 
188 0 3 5.98591 5.09247 31.0131 
1134 0 3 8.14245 2.52113 31.4838 
2190 0 3 7.90185 2.88615 28.5407 
10 0 3 6.36473 7.00332 2.74971 
4014 0 3 10.5335 10.6755 4.3878 
3113 0 3 9.9908 8.58781 4.79975 
5711 0 3 9.81307 8.19545 7.61093 
10330 0 3 10.4867 6.77543 9.00308 
12010 0 3 10.9448 7.93706 10.51 
15591 0 3 8.92467 9.20539 10.6665 
9171 0 3 7.21953 9.57051 11.6831 
13790 0 3 6.40614 7.56088 12.287 
13035 0 3 9.12968 9.70592 15.1701 
9307 0 3 9.16107 7.06201 15.3704 
12953 0 3 8.9379 10.582 16.2438 
12173 0 3 11.2083 7.30797 11.3854 
13727 0 3 9.38534 5.92793 17.1996 
22790 0 3 8.53104 7.93511 24.4608 
26576 0 3 10.2247 8.20983 23.9995 
25491 0 3 8.48824 10.5461 24.8324 
1132 0 3 8.28558 9.45522 26.4691 
24531 0 3 10.5706 9.87916 25.7886 
21125 0 3 8.49693 7.51364 27.5911 
19320 0 3 7.65725 9.27327 27.5114 
1796 0 3 5.81111 8.54172 28.1403 
6409 0 3 5.82225 9.06107 33.242 
25449 0 3 7.78724 8.44975 33.8402 
2053 0 3 5.88667 6.98404 33.6564 
26231 0 3 10.9472 7.33723 30.9678 
2870 0 3 7.96899 9.25831 30.8118 
24544 0 3 7.38619 7.7804 31.8812 
26626 0 3 10.292 8.51177 31.9826 
70 0 3 8.3906 9.9352 32.5012 
9168 0 3 8.35684 15.2887 1.94196 
9310 0 3 8.68301 13.828 4.43163 
8447 0 3 10.6617 11.9872 6.32397 