ITEM: TIMESTEP
7000000
ITEM: NUMBER OF ATOMS
900
ITEM: BOX BOUNDS pp pp pp
7.3598007983716585e-01 3.3264019920151441e+01
7.3598007983716585e-01 3.3264019920151441e+01
7.3598007983716585e-01 3.3264019920151441e+01
ITEM: ATOMS id mol type x y z 
24499 0 3 4.34588 4.49368 2.03492 
4541 0 3 1.66163 2.92861 3.2802 
14436 0 3 6.00761 2.92196 5.86461 
9518 0 3 3.18122 1.78197 7.40574 
8583 0 3 0.977665 1.37116 8.68423 
10038 0 3 5.12663 5.53837 8.64854 
14299 0 3 5.37719 0.889447 10.5256 
2420 0 3 2.92001 3.46572 11.5308 
15209 0 3 5.21116 5.34914 10.6258 
13769 0 3 1.38068 1.53794 12.1168 
7265 0 3 4.52587 2.01136 11.7932 
8055 0 3 1.40609 2.85615 12.8313 
8643 0 3 3.55503 3.59094 14.5577 
3336 0 3 2.03681 1.64288 15.7461 
16313 0 3 1.36918 2.25843 17.6563 
8105 0 3 1.63761 3.06064 23.5644 
18700 0 3 1.34996 4.26342 23.0058 
7262 0 3 2.55781 4.03536 23.4477 
6732 0 3 1.84594 5.95522 23.39 
17673 0 3 3.55985 2.53162 24.6525 
2207 0 3 3.42832 3.63862 24.2415 
3814 0 3 4.16417 3.81323 25.7829 
22260 0 3 2.0977 2.67085 27.7012 
3942 0 3 5.56759 5.93228 27.3245 
5447 0 3 5.00017 2.15815 27.9911 
9415 0 3 4.16644 5.74851 31.4061 
3113 0 3 4.89371 3.37215 31.9446 
14707 0 3 4.13667 6.08274 32.8131 
482 0 3 3.00132 4.37297 31.8675 
11554 0 3 5.39513 4.43799 32.4173 
788 0 3 1.23156 9.6394 5.91 
6315 0 3 4.14635 8.89962 4.56832 
9625 0 3 2.98179 6.76808 7.92158 
26940 0 3 3.45229 7.57939 6.69537 
15173 0 3 3.78805 7.8869 8.16327 
2699 0 3 2.99563 9.36864 9.51357 
4800 0 3 4.67171 8.99304 8.53246 
18726 0 3 3.37194 11.0233 8.52747 
25005 0 3 4.05024 7.63459 10.2085 
16878 0 3 4.15056 7.12934 11.1883 
19486 0 3 5.68954 6.34504 11.5564 
21105 0 3 5.25412 7.47126 12.3372 
5792 0 3 4.87995 6.38218 14.0336 
2128 0 3 4.48927 6.33984 14.9845 
21890 0 3 5.60383 8.04738 15.2184 
8149 0 3 4.75111 8.41083 20.0896 
12348 0 3 2.38362 7.71317 21.5331 
6841 0 3 5.83735 7.95902 21.0208 
13174 0 3 3.72954 11.1759 22.4463 
10811 0 3 2.59287 6.68332 24.6177 
26418 0 3 5.53892 7.66968 25.3041 
4880 0 3 1.06791 8.71522 27.1484 
13384 0 3 5.76277 10.6149 30.5133 
21867 0 3 1.2331 8.33113 32.6853 
12173 0 3 3.21433 12.7294 3.52752 
9283 0 3 4.22285 15.229 3.10154 
18836 0 3 4.03073 11.8962 5.25152 
5449 0 3 1.33216 15.2195 5.63597 
22335 0 3 2.71836 15.4403 9.49067 
26199 0 3 4.68813 16.0644 10.7829 
2922 0 3 1.59458 12.0443 11.6334 
23099 0 3 6.08027 12.4104 20.724 
4226 0 3 1.71002 15.1114 21.9004 
7444 0 3 4.53754 16.6896 21.9481 
11841 0 3 3.89549 14.9287 24.1717 
14070 0 3 5.25922 14.3367 23.6124 
24115 0 3 6.04619 14.9897 23.9421 
1287 0 3 2.0333 11.7504 29.4489 
7595 0 3 1.12023 11.9917 29.4206 
19945 0 3 1.74144 13.2561 30.392 
7536 0 3 4.49345 13.6852 29.7663 
22800 0 3 6.0653 15.1533 33.096 
24727 0 3 5.45282 20.7576 2.50407 
10089 0 3 2.81298 18.9203 4.18561 
513 0 3 3.58707 19.8859 3.90491 
4504 0 3 4.18004 18.5369 5.94179 
15278 0 3 2.94612 17.7043 5.04842 
15271 0 3 4.75034 21.5699 7.135 
14743 0 3 4.84004 19.1979 8.82214 
21380 0 3 0.979528 21.0027 9.02202 
26831 0 3 4.98279 21.5258 8.30978 
23933 0 3 1.0199 18.5514 10.8993 
6736 0 3 2.56024 18.7408 9.87581 
22663 0 3 2.88161 17.5251 14.8005 
8629 0 3 3.95442 19.0552 14.9379 
13188 0 3 1.9696 19.2481 18.6142 
8749 0 3 3.88762 18.9607 18.9035 
13796 0 3 1.40846 18.6057 26.0178 
9810 0 3 3.32683 19.4655 26.0769 
23940 0 3 5.12151 20.5716 27.5049 
20014 0 3 5.52088 20.9807 28.322 
1337 0 3 4.83349 17.0185 29.7036 
23558 0 3 2.64183 20.1865 30.1877 
14434 0 3 5.06617 20.1658 30.1718 
26255 0 3 2.59087 25.8135 0.820094 
6387 0 3 1.41358 27.2447 1.73538 
1032 0 3 1.07917 22.7594 4.19924 
13486 0 3 3.33364 25.301 2.74352 
18621 0 3 5.14788 25.6062 4.24355 
22128 0 3 0.754473 23.7956 6.15219 
4420 0 3 1.19208 27.5512 5.20632 
9374 0 3 5.1759 26.5072 6.05212 
4358 0 3 1.61726 22.4625 7.44178 
15050 0 3 3.49719 25.8009 6.65091 
7796 0 3 2.58353 24.5471 7.94789 
19582 0 3 4.43265 27.1672 6.43637 
19078 0 3 2.67687 25.2843 8.7639 
12930 0 3 1.27523 23.8234 13.2684 
5177 0 3 1.7744 24.1354 12.2425 
21553 0 3 4.77228 22.9924 12.7991 
2912 0 3 1.12747 23.32 14.3934 
10474 0 3 3.41394 23.9046 14.5749 
9296 0 3 4.35855 23.5417 15.5323 
24031 0 3 1.28443 22.7168 17.4322 
24068 0 3 6.11531 23.8942 17.1415 
21647 0 3 1.86354 26.8264 20.164 
19118 0 3 1.89801 27.5032 21.3856 
4212 0 3 5.01 25.9497 24.2021 
12686 0 3 5.35205 23.6288 29.4891 
6826 0 3 4.0699 25.9779 29.1553 
5124 0 3 1.73157 23.4874 32.171 
17802 0 3 2.15373 28.6709 3.74915 
11839 0 3 2.36192 31.2039 2.76352 
4769 0 3 6.0847 32.81 4.02542 
26823 0 3 1.77441 31.8441 7.26745 
7293 0 3 5.95765 30.5416 10.7407 
23489 0 3 1.08066 28.3376 14.3214 
16866 0 3 1.58542 32.9658 18.2173 
19759 0 3 1.57776 32.465 19.4034 
19153 0 3 3.94327 32.3496 19.7248 
21549 0 3 0.775414 28.4191 20.8088 
2235 0 3 5.26087 32.8472 21.7456 
279 0 3 2.11284 28.0509 23.2596 
4248 0 3 2.17612 28.9981 22.5104 
23406 0 3 1.92355 32.3468 23.747 
21125 0 3 2.21663 30.0795 24.4231 
8063 0 3 3.42723 31.8476 24.8018 
16867 0 3 4.03692 29.7236 29.1393 
18984 0 3 5.93574 32.7193 28.0122 
3815 0 3 4.26262 29.0872 30.8975 
13726 0 3 4.48491 31.9026 30.4842 
1260 0 3 4.20147 28.5699 32.7324 
26509 0 3 7.86469 1.79064 1.81371 
19180 0 3 11.4671 5.18013 1.2734 
16826 0 3 11.4363 2.47686 2.7536 
26933 0 3 8.63295 1.8186 5.00215 
5936 0 3 6.93877 1.48921 6.95717 
12059 0 3 7.35602 3.58296 7.7889 
8097 0 3 10.9398 5.63379 6.16215 
17423 0 3 10.7632 1.11739 8.41403 
18964 0 3 6.68211 5.35452 9.21538 
26781 0 3 8.33598 4.6746 8.25565 
17491 0 3 10.076 3.3355 10.2671 
494 0 3 11.1148 5.78534 10.8714 
12916 0 3 8.86993 1.70749 12.1476 
14469 0 3 8.56092 2.86536 12.4242 
10595 0 3 10.0293 3.28753 13.3249 
1228 0 3 9.51892 4.46876 12.7656 
26648 0 3 6.48056 2.08263 13.4259 
26514 0 3 9.8622 3.26667 14.4286 
20460 0 3 11.1341 2.31156 18.2074 
12008 0 3 10.6411 2.78945 17.1012 
21700 0 3 6.31561 2.54272 19.8766 
23877 0 3 11.0445 1.97106 23.2601 
4422 0 3 7.29014 1.62658 24.5465 
9829 0 3 6.59716 0.744081 24.7755 
24586 0 3 7.98259 2.48301 25.3643 
11870 0 3 9.52024 1.90832 30.8126 
25132 0 3 7.7934 3.42664 31.8928 
2365 0 3 7.88279 9.73036 1.36234 
2353 0 3 10.5436 8.15386 2.29658 
22387 0 3 6.30968 10.201 2.53153 
6373 0 3 11.4384 7.8062 3.16311 
5722 0 3 10.2589 9.77323 3.34219 
9310 0 3 6.7317 9.45031 4.87726 
6009 0 3 8.60698 7.31444 8.352 
23477 0 3 8.68244 9.20267 9.71768 
2341 0 3 6.74467 6.32199 11.0229 
21707 0 3 6.75631 11.3375 10.5748 
23145 0 3 7.12688 9.68624 13.0185 
22441 0 3 9.2715 8.71528 13.1691 
5117 0 3 7.5468 11.5289 13.5294 
4342 0 3 7.00857 11.1387 15.641 
6191 0 3 9.95644 6.22768 21.2939 
20568 0 3 10.0352 11.3332 21.4702 
21892 0 3 6.81845 8.81816 23.6917 
3607 0 3 11.163 7.12398 27.1521 
12792 0 3 10.0346 8.65705 27.9029 
18765 0 3 6.26776 10.9496 29.1607 
7914 0 3 10.5983 6.55704 30.6431 
25080 0 3 8.50725 9.49762 30.3908 
8896 0 3 10.8182 8.14925 31.515 
9270 0 3 9.80486 8.68787 31.6554 
23485 0 3 9.30732 10.8517 31.8874 
12978 0 3 6.88867 12.8401 3.56896 
5497 0 3 6.57251 13.7523 4.31249 
16299 0 3 7.95799 12.0338 5.52707 
26506 0 3 10.8697 14.6964 5.38345 
10330 0 3 11.0618 14.0626 6.20826 
11143 0 3 8.00964 11.6974 12.4885 
337 0 3 10.6007 11.8585 18.0562 
19320 0 3 10.4931 12.1849 20.9529 
11722 0 3 10.607 12.8666 22.5855 
19288 0 3 10.56 13.6937 23.3721 
4315 0 3 6.95381 16.164 23.0165 
16861 0 3 8.91094 16.8088 25.6408 
22398 0 3 6.90059 13.7291 26.8672 
7101 0 3 9.9928 14.5317 29.1978 
6862 0 3 9.2007 12.7349 31.3897 
4407 0 3 6.75156 13.9736 30.2476 
9168 0 3 8.4219 14.2058 31.2536 
2371 0 3 7.29811 15.6153 31.7516 
1091 0 3 6.99274 19.1774 1.01192 
25659 0 3 6.89729 17.5437 3.7664 
6693 0 3 7.91091 19.1065 4.94185 
24155 0 3 6.8506 18.6739 7.40589 
9537 0 3 6.84598 18.1383 9.16758 
12370 0 3 6.65442 18.9371 8.47854 
1269 0 3 10.9225 19.4269 9.19918 
5110 0 3 11.178 21.4854 11.8105 
23020 0 3 7.76028 18.8394 14.789 
9716 0 3 9.81726 18.6703 16.6804 
12950 0 3 11.4592 19.3098 19.9888 
695 0 3 10.0717 21.0133 20.5042 
6409 0 3 10.4427 18.5598 21.8675 
23439 0 3 9.93749 22.0694 20.6563 
12065 0 3 11.2306 22.0165 22.2563 
19507 0 3 8.34616 18.4599 23.7583 
9768 0 3 11.282 20.7196 23.2873 
8504 0 3 10.1507 19.8944 27.8099 
14265 0 3 8.04754 21.5234 26.9785 
4199 0 3 11.3028 21.5374 26.5734 
9718 0 3 10.2579 19.5542 30.3772 
8963 0 3 6.56643 22.0685 31.2203 
157 0 3 9.22637 22.3904 32.6247 
26626 0 3 7.01936 23.4687 1.59073 
9329 0 3 11.5263 23.2459 2.47317 
14572 0 3 9.88458 25.9143 1.15296 
14594 0 3 6.16611 26.9638 4.45197 
4045 0 3 9.95515 26.1629 8.46506 
9218 0 3 7.70701 25.0598 10.473 
24915 0 3 10.3761 24.9093 10.4438 
10088 0 3 10.8359 26.7263 10.5953 
5556 0 3 10.7743 25.9833 12.9927 
2313 0 3 9.906 26.3506 16.0503 
6578 0 3 9.89629 25.6571 18.5406 
26376 0 3 6.96871 27.0438 17.535 
24441 0 3 8.9424 23.8497 21.8022 
24732 0 3 6.86288 25.623 21.8771 
3345 0 3 9.46896 25.983 26.2793 
17376 0 3 9.25922 24.6588 27.6256 
8403 0 3 6.23283 27.578 28.9725 
20853 0 3 6.93439 26.8178 27.9063 
1624 0 3 6.36582 26.5488 31.1344 
19059 0 3 7.2816 23.2245 32.4905 
23497 0 3 7.75915 24.2635 32.4855 
13836 0 3 6.79925 28.9252 1.64707 
16921 0 3 10.1773 28.5972 2.05459 
10797 0 3 8.28451 30.2351 0.978216 
2753 0 3 6.48541 30.4828 5.7786 
13790 0 3 9.22816 31.1623 5.11664 
14727 0 3 6.92749 28.8889 6.22252 
26224 0 3 6.62202 29.9686 9.56465 
9006 0 3 10.8171 31.318 9.43186 
24763 0 3 7.53742 33.2295 8.66208 
15349 0 3 10.0453 32.0394 9.76729 
8254 0 3 8.25497 28.5161 14.3825 
17265 0 3 10.6915 32.3555 14.2491 
11846 0 3 6.71921 29.5374 16.6233 
13536 0 3 9.64031 31.4377 18.4148 
15452 0 3 9.61492 27.9338 19.9952 
21061 0 3 10.3097 31.6764 19.7184 
14225 0 3 8.35927 28.3132 21.2184 
21910 0 3 6.49909 30.5555 21.1666 
4713 0 3 7.89332 30.819 21.1396 
1418 0 3 7.89737 28.804 23.3893 
20569 0 3 11.2733 28.0679 22.7448 
2906 0 3 9.64695 33.0413 25.7024 
2628 0 3 9.39753 29.2807 26.0601 
4589 0 3 8.18027 29.137 28.2233 
18011 0 3 11.2428 28.8551 31.2092 
7109 0 3 16.8382 2.672 0.848149 
9712 0 3 12.3575 5.97614 0.849424 
14840 0 3 15.203 4.37942 1.9331 
24768 0 3 16.5236 2.91099 3.32384 
4785 0 3 13.8165 0.864482 7.20418 
23255 0 3 11.9902 2.69384 8.52554 
24485 0 3 14.4478 5.36331 9.23574 
2483 0 3 14.2605 2.71598 11.5726 
7664 0 3 12.4456 2.73069 11.8837 
602 0 3 13.4065 3.5968 12.3798 
26256 0 3 11.6492 1.20718 14.1774 
12411 0 3 15.8167 5.0959 13.6207 
25128 0 3 14.3791 1.10654 19.9874 
18938 0 3 11.8749 3.87686 19.0613 
12797 0 3 15.6133 4.23505 19.1674 
7532 0 3 14.9086 5.20022 21.0127 
5893 0 3 12.5596 1.27067 25.4717 
8983 0 3 13.8477 5.50241 24.7807 
7857 0 3 15.4353 1.88521 26.5633 
17323 0 3 14.9797 6.02713 26.3453 
8406 0 3 14.4794 4.27321 28.7876 
21912 0 3 14.3999 3.8791 30.3527 
3772 0 3 14.3803 4.80143 31.2511 
19060 0 3 14.94 4.15692 31.8869 
11958 0 3 13.6593 4.20158 32.012 
20906 0 3 12.9838 5.08752 32.0447 
6782 0 3 16.0531 8.68258 0.755554 
15691 0 3 15.5967 11.3298 2.1614 
5795 0 3 15.5279 7.51081 3.76213 
10687 0 3 16.92 8.59315 3.51986 
8848 0 3 16.574 7.00547 4.97024 
12953 0 3 12.8826 7.70138 7.16611 
2716 0 3 14.8047 7.75652 7.90842 
23872 0 3 16.7571 8.77072 7.55191 
4897 0 3 12.5938 7.41804 11.2567 
8679 0 3 14.9294 8.70415 11.5463 
20235 0 3 14.8625 6.39044 14.753 
15883 0 3 14.1262 6.21759 13.3861 
21493 0 3 15.2398 8.81338 13.7362 
9286 0 3 15.9721 6.75937 16.3185 
18550 0 3 11.8058 6.23368 18.1485 
18355 0 3 11.7064 7.89818 18.4453 
6598 0 3 11.5932 9.96463 21.664 
18476 0 3 15.3888 11.0711 21.9313 
16700 0 3 15.2918 7.47355 23.8443 
23902 0 3 13.8792 9.09924 25.0045 
15409 0 3 16.5975 8.55704 24.8143 
25878 0 3 16.5499 10.5361 25.3473 
20715 0 3 14.0664 9.4152 26.5733 
21196 0 3 14.4813 10.4486 27.9272 
17386 0 3 13.7322 8.40079 30.4087 
20397 0 3 13.5704 7.44933 32.5589 
25305 0 3 12.1567 10.1465 33.1433 
8865 0 3 13.8671 11.1615 31.828 
15591 0 3 14.2871 14.239 1.64086 
22708 0 3 15.0488 13.2184 3.09391 
3 0 3 13.2807 14.5695 4.86719 
14275 0 3 15.124 13.589 5.07418 
22269 0 3 11.9143 15.0359 6.81622 
12732 0 3 12.8898 15.0819 7.14775 
10963 0 3 16.606 12.5873 9.13285 
7760 0 3 15.8892 13.8536 10.462 
10356 0 3 15.3613 15.9153 10.3023 
24434 0 3 14.1068 11.9145 12.5763 
573 0 3 12.4653 11.7273 17.8925 
21185 0 3 12.0127 12.312 19.6267 
6882 0 3 12.9447 12.2621 18.8596 
7712 0 3 15.7775 12.71 23.9278 
23103 0 3 11.8548 14.5662 23.109 
12965 0 3 13.4505 14.5231 25.9631 
22709 0 3 14.7202 11.859 29.3498 
6952 0 3 16.9187 16.0895 31.145 
13035 0 3 13.8484 13.0361 32.5581 
8209 0 3 13.587 14.1233 32.7361 
11806 0 3 15.8832 14.8621 32.1455 
26557 0 3 13.0676 19.9886 3.07334 
2701 0 3 11.8 21.6296 3.46342 
20281 0 3 16.452 22.3927 5.5149 
21178 0 3 12.9144 20.1452 6.56134 
3800 0 3 13.3596 21.8172 8.39344 
15268 0 3 13.3331 22.3095 9.38863 
15894 0 3 13.739 17.5577 10.8791 
12461 0 3 14.9198 21.2921 16.8619 
3359 0 3 16.5192 17.9623 18.2001 
9698 0 3 13.4111 18.7508 23.9289 
23717 0 3 15.6851 18.0084 23.0098 
200 0 3 16.0386 18.5723 24.098 
10169 0 3 15.669 19.5279 24.0656 
265 0 3 15.1376 17.7224 29.4838 
19497 0 3 16.7195 22.096 28.8333 
13741 0 3 13.4052 19.7262 31.1377 
10 0 3 13.8315 19.0456 31.9113 
4875 0 3 16.2239 24.6245 3.21456 
22333 0 3 12.8715 26.1695 4.32777 
3256 0 3 12.3247 27.4918 5.94342 
21295 0 3 13.7032 26.5817 4.70406 
22080 0 3 14.97 27.807 5.12668 
21953 0 3 13.072 24.5918 7.29499 
5711 0 3 14.1109 24.4376 7.34255 
22178 0 3 13.8331 26.9075 7.01815 
26633 0 3 16.2392 26.5487 7.27813 
16961 0 3 13.8396 26.0167 11.9428 
15898 0 3 13.8934 23.4287 13.8883 
19614 0 3 12.3638 24.5447 17.7908 
26397 0 3 13.0453 25.5402 18.5215 
1232 0 3 12.8988 23.7738 19.2622 
20338 0 3 12.082 24.6086 18.8812 
2228 0 3 12.5779 24.9652 21.9761 
6199 0 3 14.7271 25.6258 21.7132 
19216 0 3 12.4533 27.1431 21.6599 
5569 0 3 13.5475 27.635 23.0163 
21560 0 3 15.7638 24.8149 25.5091 
10084 0 3 12.947 24.4738 27.4862 
6280 0 3 16.2085 26.3378 26.0627 
9149 0 3 11.9974 22.8773 28.2511 
8855 0 3 15.1978 25.963 29.2561 
9554 0 3 15.5595 24.5838 30.6779 
2926 0 3 11.639 24.3374 31.7876 
6801 0 3 11.9756 32.565 7.39647 
26111 0 3 13.9895 30.4912 8.19123 
4978 0 3 12.1931 31.6026 10.5838 
22200 0 3 13.2281 30.9109 12.9242 
21949 0 3 12.2339 30.6829 13.5293 
14247 0 3 12.5377 31.908 14.7179 
21696 0 3 14.258 28.1943 17.0845 
606 0 3 14.6227 29.2303 21.7984 
9289 0 3 11.9902 31.8827 23.6904 
1661 0 3 15.8022 28.469 24.6726 
18798 0 3 13.2666 29.2797 26.9544 
23734 0 3 13.5827 28.4247 27.3514 
24329 0 3 12.7447 30.3064 26.321 
1613 0 3 13.6136 30.7377 27.1079 
18019 0 3 13.0747 32.7638 26.0377 
399 0 3 12.876 29.1657 28.0722 
25906 0 3 12.468 28.0041 28.0708 
25622 0 3 13.318 30.3725 29.4079 
4902 0 3 15.4297 30.5132 28.5031 
24351 0 3 13.0144 32.8162 28.6746 
8367 0 3 14.9766 27.8966 30.5956 
8747 0 3 14.7278 29.4016 30.0087 
12010 0 3 15.7779 28.4658 30.4428 
16504 0 3 16.9388 30.555 29.99 
25881 0 3 13.2253 31.2549 31.8617 
24493 0 3 13.6192 31.4259 33.023 
15281 0 3 12.9272 32.5602 31.7677 
16021 0 3 18.8739 2.52772 2.25807 
3911 0 3 20.6487 1.24753 2.00268 
24544 0 3 17.7954 4.07734 1.50589 
503 0 3 18.5098 3.931 2.32373 
5246 0 3 20.3366 4.21465 0.943408 
13775 0 3 19.1999 5.78114 1.42267 
5324 0 3 19.3971 3.20707 4.18894 
12615 0 3 22.2329 4.19392 5.27225 
13036 0 3 22.2705 5.10174 5.96029 
7393 0 3 20.17 1.94075 6.51962 
9612 0 3 17.9645 5.46668 6.75611 
12576 0 3 18.5819 1.84825 11.4616 
26291 0 3 19.5869 1.59512 11.0145 
15688 0 3 18.0349 2.81469 11.1394 
20091 0 3 22.1732 3.24927 9.82485 
4664 0 3 20.8064 2.92397 12.1315 
8214 0 3 17.0251 2.88868 13.3932 
24986 0 3 18.767 3.95568 16.6287 
644 0 3 22.0059 2.35086 20.1646 
6557 0 3 20.8061 5.20969 19.2233 
26644 0 3 19.6359 2.07031 22.3837 
13772 0 3 19.1017 5.63438 24.3788 
6272 0 3 19.2138 1.71097 27.4789 
7825 0 3 20.0588 2.32319 26.3893 
19537 0 3 18.4791 3.09627 26.2616 
6491 0 3 21.2102 5.6877 26.3964 
2051 0 3 19.2708 1.64544 28.9889 
17325 0 3 20.8009 1.53556 27.9077 
7428 0 3 17.5494 3.67555 28.523 
25380 0 3 21.2654 3.62627 29.5183 
8289 0 3 21.0548 4.61866 28.409 
23359 0 3 18.7753 5.32795 31.4024 
7351 0 3 22.0348 6.07913 31.7434 
18953 0 3 19.5503 9.5333 1.42063 
2855 0 3 17.3164 8.42977 6.0804 
26117 0 3 19.4709 9.64812 6.36234 
12409 0 3 19.839 9.59397 14.1131 
8664 0 3 19.9641 8.85332 17.9561 
20490 0 3 21.7669 11.0775 17.2482 
7179 0 3 17.8865 9.3838 22.5785 
23225 0 3 20.918 8.07975 22.9373 
20015 0 3 18.6807 11.3409 23.832 
11779 0 3 19.5722 10.8956 24.0135 
8651 0 3 22.0341 6.25706 26.0389 
22059 0 3 22.1643 9.86641 26.2277 
24161 0 3 18.0991 7.06568 28.9961 
24345 0 3 20.8375 6.34464 30.7562 
3625 0 3 22.4057 9.31325 30.5846 
14360 0 3 17.2902 10.2156 30.5119 
1890 0 3 19.466 10.3344 31.2844 
1980 0 3 18.2935 7.01843 32.084 
19154 0 3 17.5979 9.23533 32.5413 
22075 0 3 19.1662 13.7755 2.58939 
11333 0 3 17.4766 16.7682 5.98108 
9962 0 3 17.2563 14.3817 7.70033 
4642 0 3 17.392 16.5528 7.54818 
10035 0 3 20.9318 16.1185 7.3288 
170 0 3 18.0431 13.6246 8.14145 
26000 0 3 17.4931 15.8117 9.93752 
8077 0 3 20.4562 16.652 10.3069 
7687 0 3 18.5974 11.8559 14.2097 
16994 0 3 18.238 16.8699 16.4293 
19632 0 3 19.3496 16.7182 16.8498 
24792 0 3 19.2243 12.686 18.0586 
15312 0 3 21.423 16.0519 17.8774 
24296 0 3 19.7416 14.142 20.6014 
15196 0 3 22.0193 13.5522 18.9906 
22500 0 3 17.4048 14.5167 21.046 
25674 0 3 21.176 14.5618 21.5423 
24818 0 3 21.5552 12.5075 24.0911 
8698 0 3 18.4121 14.1655 23.7242 
4398 0 3 21.5883 13.6737 23.5153 
17245 0 3 22.3546 15.0069 25.6376 
1132 0 3 17.7974 12.4134 26.8216 
25668 0 3 22.3688 14.1027 26.3724 
23884 0 3 17.9078 11.9276 28.9489 
14242 0 3 22.324 14.663 28.0132 
2329 0 3 22.1677 13.5994 27.9127 
21764 0 3 20.7818 14.8657 27.9058 
17767 0 3 20.6447 14.4756 30.4263 
4922 0 3 19.974 15.3264 29.9054 
11632 0 3 21.8419 16.2096 29.9007 
13340 0 3 22.0903 12.1674 32.7213 
22756 0 3 17.499 17.4567 1.53661 
10199 0 3 18.5787 18.5149 5.52153 
26946 0 3 17.3819 20.8932 4.38086 
15831 0 3 20.3632 18.95 7.70516 
18003 0 3 19.6533 19.6804 6.92127 
5349 0 3 20.7521 21.6413 6.72765 
13049 0 3 18.7898 18.4888 9.73548 
1831 0 3 21.7285 19.1463 12.8657 
1645 0 3 18.4435 21.3703 14.7534 
20585 0 3 20.9962 21.3387 15.1469 
10748 0 3 19.8053 22.3637 15.9046 
6286 0 3 18.8534 21.4643 17.2091 
18605 0 3 21.5764 21.5722 17.1683 
20964 0 3 21.4756 19.3872 19.8367 
13754 0 3 17.4064 20.9159 18.8345 
21387 0 3 18.3052 20.624 20.2575 
19219 0 3 21.7506 21.3722 19.4799 
15967 0 3 19.9505 21.825 25.6704 
11960 0 3 21.4308 19.3947 27.0177 
18079 0 3 19.4846 17.3573 28.3153 
21410 0 3 21.3517 20.0314 28.7672 
24730 0 3 21.6965 18.7823 30.7101 
15108 0 3 18.5283 20.9625 30.2454 
23356 0 3 18.1494 17.0959 33.1952 
23948 0 3 19.6216 21.9042 32.6334 
2450 0 3 17.8538 24.4906 1.34394 
829 0 3 18.808 24.3113 1.65239 
25470 0 3 18.6821 22.5486 3.92469 
19634 0 3 18.1745 25.2205 4.77635 
8329 0 3 18.9651 24.807 5.67594 
4535 0 3 19.2391 27.8165 5.63438 
3921 0 3 17.1414 23.5747 7.96182 
9144 0 3 17.6274 26.0089 6.29981 
17330 0 3 20.6357 26.2924 7.05591 
16277 0 3 20.0183 22.9612 12.9348 
1662 0 3 18.4357 25.908 12.5494 
13517 0 3 20.7489 25.7134 12.2158 
11926 0 3 19.3327 26.2039 12.9984 
18631 0 3 17.7652 25.8321 13.5595 
5453 0 3 18.3558 23.0145 15.9809 
17105 0 3 21.8601 24.1296 20.201 
3195 0 3 21.5024 23.0581 20.0227 
9307 0 3 21.2873 25.6826 23.2593 
24188 0 3 19.0144 26.7036 23.2917 
6520 0 3 17.0567 26.3433 25.2139 
22790 0 3 20.2717 26.9865 25.5985 
24086 0 3 21.0297 23.9007 26.9519 
2435 0 3 18.0429 25.0767 28.4969 
8282 0 3 19.1719 22.7973 29.9907 
5437 0 3 17.1638 25.7796 31.2528 
14660 0 3 18.0541 25.5294 30.7341 
12918 0 3 19.7011 24.4884 30.532 
24298 0 3 21.7047 22.6341 32.3802 
19263 0 3 20.9776 24.327 33.0332 
1776 0 3 20.5626 27.0729 32.096 
12804 0 3 21.3049 28.928 5.29454 
4037 0 3 17.9574 28.8653 8.47075 
22668 0 3 21.7326 31.3482 12.2737 
269 0 3 20.5493 28.3993 16.9092 
25143 0 3 20.2533 31.0504 16.3707 
478 0 3 22.3127 30.6566 17.9203 
2406 0 3 18.3872 30.6659 19.0499 
13195 0 3 21.3862 30.7116 19.101 
13727 0 3 22.271 32.3839 19.8133 
17177 0 3 17.7041 31.6495 21.2858 
24226 0 3 20.0264 29.6346 22.7731 
23525 0 3 20.2352 29.916 24.091 
19998 0 3 17.6532 30.3136 25.1009 
23111 0 3 19.8345 29.949 25.3888 
1011 0 3 17.1853 32.5982 24.9875 
11543 0 3 20.2436 33.0813 25.9235 
25238 0 3 21.9037 33.0389 25.2598 
2702 0 3 17.8419 28.4275 26.5229 
18074 0 3 20.3103 30.338 26.2193 
19368 0 3 17.9955 32.8472 27.2032 
9676 0 3 17.8525 28.4324 28.3708 
2196 0 3 20.8686 28.9708 29.3824 
18093 0 3 17.8323 30.7984 29.299 
21299 0 3 17.9073 29.2318 30.5298 
8628 0 3 20.0888 28.4809 30.6244 
3918 0 3 21.9994 27.9938 30.9927 
5974 0 3 18.4409 31.3117 30.3033 
1629 0 3 20.7196 30.0669 30.4383 
2615 0 3 19.7653 30.339 31.5217 
24990 0 3 18.4773 32.547 32.1937 
8624 0 3 24.6325 2.31428 1.84353 
11701 0 3 24.2103 4.98852 2.50575 
13898 0 3 27.4279 0.922733 5.95171 
23303 0 3 25.8741 2.72813 5.27279 
23428 0 3 27.5403 3.88062 7.22166 
21051 0 3 27.8318 3.80511 9.76124 
12598 0 3 23.9649 5.60216 9.68966 
22523 0 3 22.8286 3.3207 15.11 
25491 0 3 23.7883 2.88158 15.0078 
2747 0 3 22.8512 5.4159 13.8106 
23189 0 3 25.2063 5.86084 13.7201 
25496 0 3 24.2201 2.52108 18.99 
2331 0 3 22.51 1.3615 19.7158 
4731 0 3 23.9183 3.37984 19.5518 
14922 0 3 24.2067 4.23887 23.2803 
10740 0 3 24.5565 3.00784 22.7551 
5966 0 3 24.9455 4.38984 22.5209 
10201 0 3 23.8456 4.24027 24.9496 
15864 0 3 26.8138 0.86972 27.4981 
23086 0 3 24.5346 5.28277 27.5719 
2660 0 3 24.9752 5.97943 26.4325 
23150 0 3 23.4658 2.39669 30.0463 
15269 0 3 25.9298 0.902737 31.3174 
5315 0 3 27.3891 3.45848 29.886 
12535 0 3 24.1545 5.68241 30.209 
5044 0 3 25.5323 3.07619 31.6904 
14006 0 3 24.4997 10.2338 5.52377 
26207 0 3 24.1334 7.89892 6.44933 
2883 0 3 27.5717 7.72411 6.37731 
25303 0 3 23.4854 11.0306 6.73696 
2870 0 3 24.6572 11.1608 9.16861 
8636 0 3 25.8972 6.20442 9.89694 
7543 0 3 26.6613 10.318 9.85473 
22565 0 3 25.4592 6.84326 14.156 
23232 0 3 26.522 6.76356 14.4283 
23768 0 3 25.4802 10.6027 14.1568 
4460 0 3 26.0315 7.39004 17.988 
2684 0 3 27.6112 9.26008 18.3337 
13191 0 3 22.7565 10.7179 22.1388 
17667 0 3 24.7627 10.7144 22.3591 
15896 0 3 27.5805 11.449 21.9779 
19947 0 3 24.4629 9.87465 23.7102 
10228 0 3 26.7411 7.1692 25.114 
15964 0 3 27.5626 8.68088 33.1456 
9171 0 3 26.1192 9.14991 31.91 
24108 0 3 23.0997 10.5773 31.554 
19440 0 3 25.3414 16.34 3.61014 
14347 0 3 25.8833 12.2446 5.57637 
16421 0 3 22.7323 14.0794 5.96081 
8460 0 3 23.4359 13.3075 7.55165 
10619 0 3 22.9603 12.6983 8.2159 
9311 0 3 27.44 12.1157 9.3207 
22644 0 3 25.1584 15.2641 12.2043 
23458 0 3 23.8253 13.3246 13.4899 
14359 0 3 23.1688 11.6931 14.3545 
1352 0 3 25.5523 16.8353 14.0391 
23179 0 3 26.9368 16.2494 15.0617 
15061 0 3 25.4076 16.6289 15.9547 
7779 0 3 23.2181 11.7347 18.7546 
1928 0 3 25.1437 11.8569 20.2467 
10376 0 3 24.0036 13.7607 20.947 
18054 0 3 23.597 14.6745 21.3779 
16489 0 3 25.6272 16.4484 21.1786 
23702 0 3 25.3378 16.91 22.8016 
10172 0 3 23.5573 14.0494 25.5573 
24496 0 3 26.2743 14.6845 28.9001 
8447 0 3 25.0805 16.4293 29.2591 
20957 0 3 26.4423 12.2234 30.4511 
1272 0 3 26.2121 14.4979 33.0507 
6848 0 3 22.9283 16.27 31.5129 
20746 0 3 23.6263 16.9898 32.181 
25300 0 3 27.2182 15.8319 32.1609 
4332 0 3 23.0242 19.9272 4.00772 
17553 0 3 25.8439 20.7812 3.18074 
2130 0 3 26.0311 21.9457 2.93288 
24779 0 3 23.3605 22.3523 5.51531 
16913 0 3 22.7051 19.6934 7.62127 
23421 0 3 22.9281 19.7846 9.51274 
16487 0 3 25.6633 17.6082 10.2319 
8058 0 3 23.4441 19.1096 11.2999 
2570 0 3 25.4449 17.3083 12.9661 
6224 0 3 22.8906 18.545 13.9991 
11699 0 3 26.0132 18.0807 14.8389 
3092 0 3 25.2331 17.6283 15.6495 
22173 0 3 26.9433 20.2013 16.1953 
18544 0 3 23.5042 17.1644 19.3736 
20107 0 3 24.4225 17.7014 22.4167 
18976 0 3 27.2055 17.4831 22.137 
5326 0 3 23.5263 20.9047 21.1007 
10223 0 3 23.5877 20.6858 25 
10904 0 3 26.5959 20.741 25.0274 
14499 0 3 23.3431 17.4111 28.7823 
16829 0 3 25.8067 21.2897 29.5251 
726 0 3 23.0141 17.2126 31.3423 
188 0 3 22.5171 17.3567 29.7791 
5983 0 3 27.4898 20.0012 30.8278 
5206 0 3 24.7904 17.996 31.8482 
17900 0 3 22.5597 21.6012 32.3522 
5971 0 3 25.799 26.5884 2.3698 
4014 0 3 23.2314 23.3338 4.64276 
25209 0 3 27.3852 22.5836 5.33942 
10790 0 3 22.8284 22.7236 6.39458 
11916 0 3 25.2137 24.7102 6.18721 
26576 0 3 27.238 23.651 8.37272 
9790 0 3 27.0343 25.8744 10.5272 
1288 0 3 24.5819 27.5911 10.4726 
3687 0 3 22.4539 26.1951 11.9177 
22529 0 3 22.5609 27.5255 15.1131 
22187 0 3 22.5076 23.229 16.4781 
1618 0 3 26.646 25.8762 16.5276 
11326 0 3 23.5511 24.6191 18.981 
10577 0 3 22.5057 23.4539 24.6526 
18718 0 3 22.7962 25.4633 24.9801 
5402 0 3 26.3043 26.1531 27.2984 
1366 0 3 26.49 23.6567 29.3933 
25376 0 3 24.3775 26.7457 28.6804 
24178 0 3 27.2021 22.7083 32.3675 
22858 0 3 24.4057 24.6182 31.9037 
1772 0 3 27.7209 27.2823 32.8937 
18950 0 3 23.198 28.8101 1.22911 
5210 0 3 23.0431 28.1638 5.98387 
4247 0 3 27.5029 27.8983 4.88462 
18942 0 3 24.666 30.6996 7.65235 
7982 0 3 25.6856 32.6423 7.41538 
10682 0 3 23.4767 30.8475 9.62985 
18723 0 3 27.6636 29.7275 8.15756 
7515 0 3 23.8002 32.5287 8.94231 
11695 0 3 23.5147 31.6995 12.6115 
521 0 3 25.474 28.4764 13.9676 
12171 0 3 23.3285 29.7554 16.1169 
20639 0 3 27.7808 32.3738 20.5152 
17293 0 3 26.4493 31.1583 21.0931 
15583 0 3 22.4942 32.9163 24.1318 
19467 0 3 26.7015 31.5375 23.7277 
23869 0 3 26.8274 33.0105 22.4894 
12839 0 3 24.5154 31.1658 25.0082 
2053 0 3 24.6127 32.4291 25.2692 
22208 0 3 23.4003 28.3995 27.7557 
12296 0 3 24.0098 30.4829 27.6589 
2190 0 3 22.9974 30.244 27.5072 
15919 0 3 26.5126 30.6826 27.2663 
5710 0 3 26.9783 29.8699 27.7328 
12079 0 3 25.8211 32.9276 28.3633 
1134 0 3 26.9728 32.3844 28.3387 
11818 0 3 22.6285 29.7982 30.1175 
70 0 3 25.5683 33.263 32.8978 
25084 0 3 29.0415 2.08767 1.6741 
219 0 3 29.8358 1.43603 0.737801 
2574 0 3 32.3709 0.787309 3.58195 
23897 0 3 29.6982 1.52262 6.02891 
17278 0 3 31.7408 1.92348 7.69342 
5987 0 3 32.7815 3.84973 14.7155 
534 0 3 28.3105 4.66196 15.5047 
26382 0 3 30.5415 5.78696 16.7326 
8836 0 3 31.9088 2.15675 17.6 
701 0 3 30.8638 3.43912 18.0401 
25632 0 3 29.1173 1.76613 19.5768 
4170 0 3 28.6149 4.96261 19.3819 
7542 0 3 31.588 5.6958 19.8034 
8695 0 3 31.1912 4.28096 21.1708 
6296 0 3 29.7975 6.12155 20.9388 
1327 0 3 31.9156 5.12288 21.1455 
6211 0 3 32.9606 4.77423 23.7263 
9720 0 3 29.4568 2.74471 25.3465 
10011 0 3 30.5064 3.27223 24.3373 
26048 0 3 31.6296 1.89427 27.0824 
5744 0 3 32.8158 2.63239 27.2163 
14862 0 3 32.9567 3.14005 26.1577 
3620 0 3 30.0913 4.47535 26.4369 
1929 0 3 31.7516 1.80868 28.7186 
8999 0 3 28.5134 3.26585 28.5025 
16264 0 3 28.4388 1.23239 32.7906 
12077 0 3 28.324 2.26209 33.1525 
18340 0 3 32.6584 0.806748 32.3149 
5982 0 3 30.3966 5.0376 33.1619 
6601 0 3 32.0181 6.59493 1.07366 
22845 0 3 33.2273 10.0633 2.23091 
21594 0 3 29.1281 11.2498 3.2659 
16256 0 3 31.5649 10.714 3.65177 
4519 0 3 29.4782 7.53381 5.52728 
12821 0 3 31.3439 8.34309 5.47912 
19988 0 3 32.5835 9.75663 4.44772 
26231 0 3 30.6994 6.47918 8.2213 
25995 0 3 32.4582 11.2552 8.95628 
13266 0 3 29.1145 9.09797 11.9948 
2056 0 3 28.2558 11.2211 11.7197 
24416 0 3 30.6822 9.70557 14.3603 
2464 0 3 31.6348 6.65072 15.2737 
25090 0 3 29.1163 10.2436 15.9269 
321 0 3 32.2025 11.5277 16.0528 
23595 0 3 32.5904 11.0486 19.6368 
1796 0 3 30.2561 8.90998 21.4033 
17999 0 3 32.1426 11.1031 22.2417 
16036 0 3 30.2547 8.46924 23.9717 
15028 0 3 31.6291 9.05497 23.7473 
22146 0 3 31.3048 7.40141 25.7789 
5445 0 3 32.5055 6.50479 25.5864 
14823 0 3 29.1402 8.9787 25.5819 
17744 0 3 32.4103 8.55814 24.7091 
9465 0 3 29.6298 10.8492 27.1611 
6503 0 3 31.5531 9.10368 29.1634 
8066 0 3 29.6702 7.33159 30.1336 
13620 0 3 28.1527 9.80835 29.8324 
9004 0 3 28.0149 6.83234 32.9987 
20172 0 3 30.987 9.27549 33.173 
25449 0 3 30.5548 8.84569 32.2683 
20975 0 3 28.3254 13.6914 2.33751 
21444 0 3 30.5168 13.2729 2.62139 
21143 0 3 29.7567 14.7965 3.53299 
18502 0 3 31.3069 16.5934 3.26419 
9459 0 3 28.6642 12.9875 6.19552 
20942 0 3 31.1195 14.7973 9.45996 
21219 0 3 30.41 11.7621 9.82805 
16386 0 3 31.4311 14.8273 10.726 
19829 0 3 28.8892 11.8098 12.4011 
24227 0 3 29.2564 12.8523 12.2853 
19188 0 3 28.27 11.8952 13.3125 
6641 0 3 30.6274 15.2398 12.4531 
8998 0 3 33.224 12.5971 14.6269 
4676 0 3 29.7488 15.1906 14.6074 
9778 0 3 30.3243 12.7966 15.5497 
2705 0 3 28.0522 15.6152 15.5356 
14455 0 3 32.2352 15.4314 16.0445 
909 0 3 32.9201 16.1035 17.2343 
20902 0 3 32.4799 16.9933 17.4725 
7565 0 3 29.9593 11.9385 19.1297 
8871 0 3 30.7638 15.6627 19.6098 
3103 0 3 28.382 14.0308 20.747 
7354 0 3 32.0322 16.3144 22.2616 
9281 0 3 28.9691 16.8307 23.7441 
2243 0 3 28.9404 11.7318 26.015 
16530 0 3 30.7901 11.6419 24.8065 
3013 0 3 30.4741 13.2171 26.9892 
15171 0 3 32.1051 14.8388 26.9916 
10692 0 3 28.0274 11.699 28.6451 
14396 0 3 29.5173 16.0166 32.8905 
3373 0 3 30.6442 16.7243 31.5284 
25767 0 3 30.0244 16.9724 32.6441 
12073 0 3 32.7003 22.2888 1.45083 
9305 0 3 31.7333 22.1533 4.00324 
2626 0 3 30.4792 17.4214 5.70743 
6954 0 3 29.3668 19.4712 5.72288 
10119 0 3 29.8958 20.6617 4.55578 
23534 0 3 33.1163 20.1156 7.51139 
5113 0 3 28.618 21.116 7.94245 
22014 0 3 29.702 17.1794 8.00059 
24217 0 3 31.6462 18.0937 8.76809 
19027 0 3 30.4514 18.0048 10.5398 
26070 0 3 30.8593 19.9136 12.051 
10326 0 3 30.2931 19.202 19.4757 
4547 0 3 28.5046 19.5563 21.3955 
12066 0 3 28.4581 21.5026 22.3339 
3265 0 3 31.3398 19.2758 23.951 
11161 0 3 29.6322 20.913 23.9555 
13767 0 3 30.0492 20.4711 25.2528 
4693 0 3 29.378 17.302 29.3155 
4709 0 3 30.1584 17.4359 30.3064 
18467 0 3 29.9415 20.3419 32.7336 
12989 0 3 32.0891 26.3498 0.915301 
14218 0 3 32.4981 22.8537 4.26755 
20583 0 3 29.7979 24.3209 3.85849 
5729 0 3 33.1962 26.0622 2.76338 
15479 0 3 30.0756 22.9021 6.51426 
11705 0 3 29.0947 26.9416 13.2071 
23243 0 3 32.084 27.0184 12.6475 
22537 0 3 29.1524 26.4268 17.0713 
21400 0 3 28.1265 24.3649 19.252 
24280 0 3 32.0715 25.2549 19.2156 
19369 0 3 32.5645 23.2024 23.5965 
24531 0 3 32.3067 24.9433 23.0786 
13336 0 3 30.5977 23.9726 25.2343 
16564 0 3 29.2738 26.5687 24.7208 
4778 0 3 29.1917 27.8137 26.6774 
5911 0 3 31.8987 24.5723 29.5035 