LAMMPS (3 Mar 2020)
OMP_NUM_THREADS environment is not set. Defaulting to 1 thread. (src/comm.cpp:94)
  using 1 OpenMP thread(s) per MPI task
Reading data file ...
  orthogonal box = (0 0 0) to (34 34 34)
  6 by 6 by 6 MPI processor grid
  reading atoms ...
  28900 atoms
  scanning bonds ...
  1 = max bonds/atom
  reading bonds ...
  8700 bonds
Finding 1-2 1-3 1-4 neighbors ...
  special bond factors lj:   0          0          0         
  special bond factors coul: 0          0          0         
  2 = max # of 1-2 neighbors
  2 = max # of 1-3 neighbors
  4 = max # of 1-4 neighbors
  6 = max # of special neighbors
  special bonds CPU = 2.47329 secs
  read_data CPU = 2.64038 secs
6000 atoms in group polyA
3000 atoms in group sticker
3000 atoms in group counterions
9000 atoms in group chain
1900 atoms in group filler
11200 atoms in group water
3800 atoms in group salt
27000 atoms in group exc
Finding 1-2 1-3 1-4 neighbors ...
  special bond factors lj:   0          1          1         
  special bond factors coul: 0          1          1         
  2 = max # of 1-2 neighbors
  6 = max # of special neighbors
  special bonds CPU = 0.0195472 secs
100 rigid bodies with 1900 atoms
Neighbor list info ...
  update every 1 steps, delay 0 steps, check yes
  max neighbors/atom: 2000, page size: 100000
  master list distance cutoff = 1.7
  ghost atom cutoff = 1.7
  binsize = 0.85, bins = 40 40 40
  1 neighbor lists, perpetual/occasional/extra = 1 0 0
  (1) pair soft, perpetual
      attributes: half, newton on
      pair build: half/bin/newton
      stencil: half/bin/3d/newton
      bin: standard
Setting up Verlet run ...
  Unit style    : lj
  Current step  : 0
  Time step     : 0.005
WARNING: Communication cutoff 1.7 is shorter than a bond length based estimate of 1.755. This may lead to errors. (src/comm.cpp:686)
Per MPI rank memory allocation (min/avg/max) = 13.02 | 14.55 | 15.14 Mbytes
Step Temp Press TotEng Volume 
       0   0.79936292    5.4524228     18.21603        39304 
   10000   0.80211171    11.345596    11.978388        39304 
   20000   0.79929976    12.742425    12.343522        39304 
   30000   0.80418593    14.147907    12.686213        39304 
   40000   0.80472924    15.546188      13.0245        39304 
   50000   0.80253585    16.950498    13.339116        39304 
   60000   0.80514104    18.328837     13.67473        39304 
   70000   0.79919517     19.76451    14.000701        39304 
   80000    0.8042495    21.097444    14.321772        39304 
   90000   0.80596247    22.452811    14.650682        39304 
  100000   0.80387628    23.872705    14.988007        39304 
  110000   0.79930154    25.309778    15.317637        39304 
  120000   0.79926455    26.595741    15.683684        39304 
  130000   0.80486324      28.0129    16.028753        39304 
  140000   0.79654533    29.377769    16.389473        39304 
  150000   0.80549428    30.718398    16.759653        39304 
  160000   0.79699668    32.071995    17.113213        39304 
  170000   0.79636036    33.392548    17.478004        39304 
  180000    0.8012147    34.808118    17.833087        39304 
  190000   0.79655592    36.152566    18.208333        39304 
  200000   0.79280351    37.550236    18.567148        39304 
  210000   0.79568044    38.870111    18.932691        39304 
  220000   0.80291304    40.223225    19.315214        39304 
  230000   0.79283273    41.593016    19.651914        39304 
  240000    0.7978104    42.914649    20.026957        39304 
  250000   0.80327134    44.333734    20.404396        39304 
  260000   0.80418606    45.675895    20.768871        39304 
  270000   0.80165997    47.052993    21.138483        39304 
  280000   0.78936639      48.3479    21.475387        39304 
  290000   0.79948908    49.679101    21.858967        39304 
  300000   0.80502656    51.047652    22.223889        39304 
  310000   0.79957753     52.34263    22.591473        39304 
  320000   0.79879945    53.721794    22.948057        39304 
  330000   0.80249589    55.070489    23.310338        39304 
  340000   0.80024773    56.433761    23.673497        39304 
  350000   0.80430002    57.744224    24.052201        39304 
  360000   0.80053177    59.149513    24.406093        39304 
  370000   0.79999283    60.435259    24.771183        39304 
  380000   0.81015712    61.751325    25.150673        39304 
  390000   0.79687574    63.153944     25.48708        39304 
  400000   0.79904206    64.441749    25.858151        39304 
  410000   0.80421693    65.721021    26.227852        39304 
  420000   0.80039103    67.108423    26.591077        39304 
  430000   0.79739963    68.327116    26.946036        39304 
  440000   0.80371115    69.754448    27.316649        39304 
  450000   0.80324146    71.101363    27.668497        39304 
  460000   0.80169525    72.369136    28.040448        39304 
  470000   0.79346317    73.681959    28.394963        39304 
  480000   0.80049241    75.039008    28.747338        39304 
  490000   0.80567597    76.307574    29.120224        39304 
  500000   0.79983093    77.615798    29.483535        39304 
  510000   0.79513612    78.979602    29.837137        39304 
  520000    0.8020352    80.259683    30.190296        39304 
  530000   0.80016969    81.610401    30.565021        39304 
  540000   0.79920792      82.8871    30.916102        39304 
  550000   0.80058607      84.2379    31.267439        39304 
  560000   0.79180467    85.584343    31.634862        39304 
  570000   0.80521441    86.921333    32.004918        39304 
  580000   0.80127216    88.199084    32.347662        39304 
  590000   0.79413016    89.570661    32.704986        39304 
  600000   0.79588827    90.787632    33.079934        39304 
  610000   0.80618653    92.083107    33.435502        39304 
  620000   0.80262532    93.456652    33.782897        39304 
  630000   0.80604246    94.764877    34.161054        39304 
  640000    0.7930394    96.030813    34.495934        39304 
  650000    0.7981153    97.368822    34.863845        39304 
  660000    0.8025027    98.700889      35.2225        39304 
  670000   0.80027591    99.944565     35.58206        39304 
  680000   0.79877925    101.31738    35.942857        39304 
  690000   0.79704438    102.54919    36.289476        39304 
  700000    0.8007285    103.88543    36.648654        39304 
  710000   0.79323495    105.20623    37.005566        39304 
  720000   0.80070758    106.43425    37.369602        39304 
  730000   0.80610673    107.69721    37.726164        39304 
  740000    0.7908577    109.04062    38.068898        39304 
  750000    0.7996261    110.40908    38.439592        39304 
  760000   0.80052623    111.70084    38.785539        39304 
  770000   0.80112569    113.01674    39.149366        39304 
  780000   0.80045067    114.32123    39.508415        39304 
  790000   0.79618472    115.56246    39.849053        39304 
  800000   0.80151838    116.82255    40.232526        39304 
  810000   0.79874102    118.28099    40.570184        39304 
  820000   0.79629552    119.39829    40.921033        39304 
  830000   0.79885129    120.85165    41.281611        39304 
  840000   0.79724207    122.02143    41.639401        39304 
  850000   0.80069635    123.33078    42.000566        39304 
  860000   0.79491082    124.58711    42.335095        39304 
  870000   0.80119336    125.87323    42.694452        39304 
  880000   0.79975662    127.22321    43.058081        39304 
  890000   0.80307849    128.56983    43.414239        39304 
  900000   0.80368259    129.83099    43.768137        39304 
  910000   0.79838554    131.03309    44.113017        39304 
  920000    0.7989643    132.26194    44.462552        39304 
  930000   0.79603676    133.60286    44.821308        39304 
  940000     0.800506    135.00365    45.178842        39304 
  950000   0.79833159    136.19065    45.536381        39304 
  960000   0.80822427    137.47972    45.895907        39304 
  970000   0.80201865    138.75151    46.232692        39304 
  980000   0.79760248    140.02546    46.594695        39304 
  990000   0.79609925    141.34312    46.940023        39304 
 1000000   0.80616992    142.63743    47.309158        39304 
 1010000   0.79683584    143.86289    47.637436        39304 
 1020000   0.79929768    145.16611    48.009062        39304 
 1030000   0.79969372    146.42787    48.350099        39304 
 1040000   0.80456881    147.76017    48.718028        39304 
 1050000   0.80250021    149.01195    49.049054        39304 
 1060000   0.80845505      150.339    49.438314        39304 
 1070000   0.79412783    151.59723    49.751501        39304 
 1080000    0.7962695     152.8422    50.103407        39304 
 1090000   0.79851868    154.07254    50.459484        39304 
 1100000   0.79646276    155.42124    50.813175        39304 
 1110000   0.79041778    156.65106    51.153832        39304 
 1120000   0.80441495    157.88692    51.529955        39304 
 1130000   0.80293881    159.27129     51.88821        39304 
 1140000   0.79834969    160.53744     52.22537        39304 
 1150000   0.79864158    161.80874    52.569132        39304 
 1160000   0.80145738    163.02876    52.918998        39304 
 1170000   0.79941282    164.35492    53.265639        39304 
 1180000   0.80370793    165.55581    53.641484        39304 
 1190000   0.79879029    166.90838    53.983175        39304 
 1200000   0.79664627    168.13093    54.327249        39304 
 1210000   0.79652493    169.39929    54.677233        39304 
 1220000   0.79218004    170.56749    55.015375        39304 
 1230000   0.79419721    171.96827    55.367426        39304 
 1240000    0.7984228    173.29488    55.729618        39304 
 1250000   0.79923426    174.41996    56.080913        39304 
 1260000   0.80531034    175.73122     56.44026        39304 
 1270000   0.80204073      177.058     56.77906        39304 
 1280000   0.79407764    178.26785    57.121683        39304 
 1290000    0.8028467    179.46468    57.488578        39304 
 1300000   0.79557014    180.89759    57.818034        39304 
 1310000   0.79916094    182.01958    58.178359        39304 
 1320000   0.79821841    183.44281    58.525813        39304 
 1330000   0.80266208     184.6765    58.878229        39304 
 1340000   0.79693558    185.90752    59.218534        39304 
 1350000   0.79854722    187.13006    59.569715        39304 
 1360000     0.799083    188.31719    59.913702        39304 
 1370000    0.8035392    189.63998    60.272497        39304 
 1380000   0.80137476    191.03841    60.613016        39304 
 1390000    0.7997274    192.26488    60.968225        39304 
 1400000   0.79793525    193.57013    61.310788        39304 
 1410000   0.80455736    194.77963    61.673131        39304 
 1420000   0.79470281    196.06464    61.992177        39304 
 1430000   0.80058468    197.44028    62.373082        39304 
 1440000   0.80756393    198.50203    62.723869        39304 
 1450000   0.79915197       199.89    63.056731        39304 
 1460000   0.80196877    201.08242    63.411022        39304 
 1470000   0.80331626    202.28796    63.749123        39304 
 1480000   0.80431573    203.56848    64.105845        39304 
 1490000   0.79366848    204.93477    64.434731        39304 
 1500000   0.80193535    206.18461    64.799424        39304 
 1510000   0.80025998    207.40692    65.133561        39304 
 1520000   0.80276251    208.77615    65.504391        39304 
 1530000   0.80344485    209.99589    65.841552        39304 
 1540000   0.80834417    211.18253    66.186182        39304 
 1550000   0.79952179    212.43023    66.531433        39304 
 1560000     0.794294    213.71568    66.871858        39304 
 1570000   0.79755507    214.95321    67.217447        39304 
 1580000   0.79754588    216.25807    67.561328        39304 
 1590000   0.80389847    217.39652    67.917462        39304 
 1600000   0.79978459    218.75747    68.257591        39304 
 1610000   0.80365206    220.02028    68.612959        39304 
 1620000   0.80137366    221.28838    68.953251        39304 
 1630000   0.79336324    222.47662    69.287901        39304 
 1640000   0.80366934    223.79374    69.655947        39304 
 1650000   0.79759899     224.9992    69.987373        39304 
 1660000    0.7962898    226.29428    70.340872        39304 
 1670000    0.7998137    227.54352    70.684632        39304 
 1680000   0.80139799    228.77488    71.027026        39304 
 1690000   0.80952341    230.08026    71.388832        39304 
 1700000   0.79946399    231.24781    71.719206        39304 
 1710000   0.79469448    232.63055    72.052256        39304 
 1720000   0.80062925    233.77072    72.416575        39304 
 1730000   0.79876599    235.11995    72.755415        39304 
 1740000   0.79832647    236.33083    73.109977        39304 
 1750000   0.79999779    237.56381    73.457835        39304 
 1760000   0.80766065    238.81275    73.810186        39304 
 1770000    0.7953857    240.14934    74.140764        39304 
 1780000   0.79488482    241.32905    74.481111        39304 
 1790000   0.79578696    242.55085    74.812036        39304 
 1800000   0.79631221    243.77382    75.180437        39304 
 1810000   0.79835078    245.15894    75.531043        39304 
 1820000   0.79586607    246.39104    75.856671        39304 
 1830000   0.79863868    247.62967    76.197247        39304 
 1840000   0.80557043    248.98637    76.562149        39304 
 1850000    0.7996227    250.03719    76.893836        39304 
 1860000   0.79819871    251.32255    77.248126        39304 
 1870000   0.80278798    252.64552    77.598842        39304 
 1880000   0.79540977    253.91454    77.924573        39304 
 1890000   0.79626542    255.16593    78.266021        39304 
 1900000   0.80045131    256.28191    78.616421        39304 
 1910000   0.79893603    257.52769    78.950364        39304 
 1920000   0.80122685    258.69984     79.30036        39304 
 1930000    0.8050489    260.14934    79.657325        39304 
 1940000   0.79967946     261.2341    79.993064        39304 
 1950000   0.80262498    262.67774    80.347564        39304 
 1960000   0.80056304    263.78226    80.687913        39304 
 1970000   0.79957683      264.852    81.031699        39304 
 1980000    0.8006476    266.41668    81.370649        39304 
 1990000   0.79828254    267.61002    81.709031        39304 
 2000000   0.79682015    268.76689     82.05276        39304 
Loop time of 1142.2 on 216 procs for 2000000 steps with 28900 atoms

Performance: 756437.207 tau/day, 1751.012 timesteps/s
99.9% CPU use with 216 MPI tasks x 1 OpenMP threads

MPI task timing breakdown:
Section |  min time  |  avg time  |  max time  |%varavg| %total
---------------------------------------------------------------
Pair    | 131.79     | 139.87     | 159.41     |  44.2 | 12.25
Bond    | 1.0467     | 2.8478     | 4.6109     |  46.0 |  0.25
Neigh   | 76.187     | 82.058     | 87.818     |  24.4 |  7.18
Comm    | 267.93     | 305.04     | 337.93     |  81.2 | 26.71
Output  | 0.60535    | 0.60846    | 0.62573    |   0.2 |  0.05
Modify  | 434.99     | 458.35     | 506.52     |  54.5 | 40.13
Other   |            | 153.4      |            |       | 13.43

Nlocal:    133.796 ave 218 max 117 min
Histogram: 52 119 31 6 3 3 0 1 0 1
Nghost:    414.014 ave 470 max 382 min
Histogram: 8 24 55 56 32 15 15 7 2 2
Neighs:    923.472 ave 1661 max 781 min
Histogram: 62 110 28 8 2 3 1 1 0 1

Total # of neighbors = 199470
Ave neighs/atom = 6.90208
Ave special neighs/atom = 0.602076
Neighbor list builds = 237295
Dangerous builds = 0
System init for write_data ...
Neighbor list info ...
  update every 1 steps, delay 0 steps, check yes
  max neighbors/atom: 2000, page size: 100000
  master list distance cutoff = 2.8
  ghost atom cutoff = 2.8
  binsize = 1.4, bins = 25 25 25
  1 neighbor lists, perpetual/occasional/extra = 1 0 0
  (1) pair lj/cut, perpetual
      attributes: half, newton on
      pair build: half/bin/newton
      stencil: half/bin/3d/newton
      bin: standard
Setting up Verlet run ...
  Unit style    : lj
  Current step  : 2000000
  Time step     : 0.005
Per MPI rank memory allocation (min/avg/max) = 13.17 | 14.68 | 15.17 Mbytes
Step Temp Press TotEng Volume 
 2000000   0.79682015    9.6471779     5.121762        39304 
 2010000   0.79773405  -0.23589729    2.2120294    35431.164 
 2020000   0.80360013  -0.24102984    2.2181777    35387.256 
 2030000   0.80151127  -0.23681656    2.2156218    35466.976 
 2040000   0.80228276  -0.24300334    2.2267919    35557.523 
 2050000   0.79836198  -0.24373316     2.236912    35642.947 
 2060000   0.79910868  -0.23085371    2.2190945    35467.842 
 2070000   0.80313948   -0.2401028    2.2193995    35460.109 
 2080000   0.80578307  -0.24151055    2.2374624    35563.251 
 2090000   0.80051448  -0.24213581    2.2070017    35441.661 
 2100000   0.80504553  -0.23835609    2.2281083    35476.462 
 2110000   0.79804669  -0.23996618    2.2329437    35622.427 
 2120000   0.79825015  -0.23759604    2.2147913     35480.86 
 2130000   0.79862971   -0.2420753    2.2173945     35485.66 
 2140000   0.80137919  -0.24456736    2.2134289    35530.286 
 2150000   0.80290996  -0.24392422    2.2351643     35606.27 
 2160000   0.80674374   -0.2416604    2.2151798    35396.224 
 2170000    0.7919068  -0.23993929     2.192652    35387.755 
 2180000   0.80022833  -0.23682432    2.2355077    35637.493 
 2190000   0.79617412  -0.23549597    2.2308881    35619.567 
 2200000   0.80344467  -0.23258514    2.2254135    35502.025 
 2210000   0.80084787  -0.24207844     2.225867    35502.239 
 2220000   0.79994491  -0.24206184    2.2038311    35385.139 
 2230000   0.79832435  -0.23797034    2.2078956    35467.388 
 2240000   0.80254451  -0.23849741    2.2239794    35588.154 
 2250000    0.7959449  -0.23616022    2.2164263    35537.051 
 2260000   0.79941875   -0.2351256     2.222385    35537.433 
 2270000    0.8001491  -0.24518871    2.2093686    35429.283 
 2280000   0.79306603  -0.23778189    2.2003921    35429.912 
 2290000   0.80753702  -0.24122051     2.214945    35449.848 
 2300000    0.7970625  -0.23644099    2.2207645    35511.064 
 2310000   0.79371926  -0.22876415    2.2014719    35409.812 
 2320000    0.8073006  -0.24224792     2.227593    35477.067 
 2330000   0.79030994  -0.24103706    2.2130975    35566.098 
 2340000   0.79944629  -0.23560963    2.2167175    35475.644 
 2350000   0.80535058  -0.24198242    2.2267721    35540.288 
 2360000   0.80198294   -0.2361101    2.2309418    35539.942 
 2370000   0.80704509   -0.2434242    2.2138256    35393.543 
 2380000   0.80016765  -0.24176881    2.2224249    35492.438 
 2390000   0.80639154  -0.24082257    2.2186504    35482.476 
 2400000   0.79980578  -0.24638646    2.2072286    35419.478 
 2410000   0.79787992  -0.23928508    2.2226824    35564.579 
 2420000   0.80303301  -0.23445138    2.2304892     35569.42 
 2430000   0.79817084  -0.23081531     2.199392    35424.486 
 2440000    0.7961223  -0.24350396    2.1970057    35352.011 
 2450000   0.80297145  -0.24834881    2.1917496    35283.748 
 2460000   0.79764103  -0.24379406    2.2081128    35455.578 
 2470000   0.80077076  -0.23245006    2.2311829    35514.173 
 2480000   0.79969698  -0.23992434    2.1971069    35363.041 
 2490000   0.80219462  -0.24539389    2.2078629    35403.838 
 2500000   0.79091292  -0.24317885    2.2017069    35449.107 
 2510000   0.79339152  -0.23818185    2.2005704    35451.332 
 2520000   0.79931593  -0.23945803    2.1888267     35341.82 
 2530000    0.7997548  -0.24928826    2.2061009    35388.731 
 2540000   0.79959011   -0.2340173    2.2121602    35446.935 
 2550000   0.80676921  -0.23405457    2.2115887    35433.413 
 2560000   0.80135857  -0.23644046    2.2038103    35396.671 
 2570000   0.79516872  -0.24458195    2.2246989    35624.743 
 2580000   0.80716573  -0.23969609    2.2222908    35457.504 
 2590000   0.80526086  -0.24151483    2.2307778    35544.676 
 2600000   0.80646218  -0.24274384    2.2266553    35524.079 
 2610000   0.80126335  -0.23705426    2.2100392    35464.117 
 2620000   0.80583276  -0.23526341    2.2165498    35451.487 
 2630000    0.7949678   -0.2515526    2.1959952    35411.234 
 2640000   0.80082438  -0.23454638    2.2027886    35445.548 
 2650000   0.80003296  -0.24444877    2.2103966     35423.06 
 2660000   0.79984462  -0.24278736    2.2145052    35460.456 
 2670000   0.79235785  -0.23925708    2.1842141    35334.329 
 2680000   0.80179599  -0.23484405    2.2050089    35410.429 
 2690000   0.79723548  -0.24979878    2.1979112     35388.73 
 2700000   0.80644123  -0.24543642    2.2134616    35412.629 
 2710000     0.801615  -0.24400575    2.2038206    35397.074 
 2720000   0.80529084  -0.24577191    2.2131719    35445.161 
 2730000    0.7951765    -0.237141    2.1843548    35348.388 
 2740000   0.80167549  -0.24994788    2.2036129    35463.726 
 2750000   0.80811678  -0.23586455    2.2124818    35444.584 
 2760000   0.79829803  -0.23664077    2.1892211    35357.762 
 2770000   0.79952072  -0.24083968    2.1909685    35338.824 
 2780000   0.80079974  -0.24277067    2.1961524    35343.374 
 2790000   0.80157161  -0.24550324    2.2071274    35456.424 
 2800000    0.7973302  -0.24159362    2.2012322    35405.491 
 2810000   0.79693508  -0.24480659    2.1946545    35410.248 
 2820000   0.80199022  -0.24171065    2.1985149    35400.111 
 2830000   0.78929891   -0.2302067    2.1895262    35409.426 
 2840000   0.80032627  -0.25124626    2.1962341    35437.444 
 2850000   0.80030301  -0.24323755     2.178924    35289.991 
 2860000   0.80545274  -0.23744896    2.1931418    35298.851 
 2870000   0.79921993   -0.2346215    2.1958195    35401.666 
 2880000   0.79976565  -0.24335498    2.1898755    35361.711 
 2890000   0.79502224  -0.24209479    2.2100778    35531.216 
 2900000   0.80022334  -0.23898837     2.213383    35474.703 
 2910000   0.80382441  -0.24576392    2.1935432    35336.458 
 2920000   0.80135375  -0.23213645    2.2079446    35473.207 
 2930000   0.80186061  -0.23363493    2.2064563    35408.679 
 2940000   0.80411197  -0.24173588     2.204177     35399.51 
 2950000   0.79894262  -0.24324764    2.1896594    35323.446 
 2960000   0.80181273  -0.23714451    2.2028984    35429.993 
 2970000   0.80332154  -0.23486111    2.2161828    35487.009 
 2980000   0.79916821  -0.24412653    2.2135358    35485.307 
 2990000   0.80127897  -0.24336762    2.2126211    35480.499 
 3000000   0.80285217  -0.24796569    2.2026554    35377.599 
 3010000   0.79721193  -0.23533513    2.2015561    35420.534 
 3020000    0.8006869  -0.24758569    2.1935582    35341.704 
 3030000    0.8025852  -0.23605981    2.2159899    35530.439 
 3040000   0.79605733  -0.24513069    2.1958111    35393.027 
 3050000   0.79740423  -0.24184852    2.1985294    35426.343 
 3060000   0.79751607  -0.23287697     2.209993    35479.052 
 3070000   0.80095778  -0.24528022    2.1992927    35408.655 
 3080000   0.80934155  -0.25008564    2.1968531    35284.955 
 3090000   0.79500652  -0.23756806     2.190421    35451.117 
 3100000   0.80446189  -0.24745938    2.1958596     35301.09 
 3110000   0.79369396   -0.2404549    2.1938877    35404.399 
 3120000   0.80193053  -0.23737682    2.2077999    35419.118 
 3130000   0.79661062  -0.23551073    2.2152554    35492.444 
 3140000   0.80280255  -0.24680734    2.2001037    35408.076 
 3150000   0.79976427  -0.23622315    2.2036408    35433.793 
 3160000   0.80025794  -0.23997028    2.2081879    35441.843 
 3170000   0.79807062  -0.25036092    2.1954144    35423.832 
 3180000   0.80454978  -0.23954175     2.210341    35399.098 
 3190000   0.80315308  -0.24389685    2.1944545    35328.058 
 3200000   0.80255211  -0.24092915    2.2048782    35391.813 
 3210000   0.80572435  -0.23605506    2.2052978    35372.448 
 3220000   0.80001323  -0.24227279    2.2035899    35403.493 
 3230000   0.80445283  -0.24278446    2.2167974    35495.069 
 3240000   0.80480379  -0.25187424    2.2053185    35408.629 
 3250000   0.80311944  -0.23947087    2.2238604     35499.74 
 3260000   0.79986022  -0.22884922    2.2085995    35472.178 
 3270000   0.79906575  -0.23905247    2.1935241    35353.898 
 3280000   0.79884693  -0.24682205    2.1880393    35297.139 
 3290000   0.80417268  -0.24895635    2.2163419    35446.928 
 3300000   0.79948103    -0.240515    2.1800787    35287.675 
 3310000   0.79636223  -0.24595565    2.2096876    35452.474 
 3320000   0.79743057  -0.24398994    2.1867691    35316.651 
 3330000   0.79759902  -0.23947266    2.2069337    35447.187 
 3340000   0.79099024  -0.24110016    2.1917712    35422.246 
 3350000    0.7976562  -0.24404064    2.2012683    35428.632 
 3360000   0.79913696  -0.24351419    2.2082019    35436.825 
 3370000   0.80140034  -0.25036002    2.1851701    35365.204 
 3380000   0.79613843  -0.24325309    2.1999209     35499.51 
 3390000   0.80460912  -0.23910001    2.2120503    35502.208 
 3400000   0.80359573   -0.2431928    2.2091121    35444.179 
 3410000   0.80651001  -0.24155799    2.1949852    35348.299 
 3420000   0.80181851  -0.24271581    2.1930294    35351.055 
 3430000   0.79791176   -0.2397505    2.1797416    35304.554 
 3440000   0.80001511  -0.24817105    2.2027203    35438.526 
 3450000   0.80365868  -0.24222295    2.1904357    35333.598 
 3460000   0.79615261   -0.2405911    2.1891109    35383.507 
 3470000   0.80016549  -0.24058643    2.1951428    35396.704 
 3480000   0.79536442  -0.24413837    2.2077176    35459.922 
 3490000   0.79902258  -0.24082322    2.1897386    35364.588 
 3500000   0.79693157  -0.23964074    2.1818936     35388.91 
 3510000   0.80105997  -0.24776796    2.1979966    35386.569 
 3520000   0.80146569  -0.24389816    2.1946498    35338.956 
 3530000   0.79981543  -0.25124098    2.1977815    35428.636 
 3540000   0.80017087    -0.233841     2.203104    35396.123 
 3550000   0.81280296   -0.2525485    2.2221435    35496.299 
 3560000    0.7985919  -0.24073061    2.2038432    35428.998 
 3570000     0.804097  -0.24758174    2.1966067    35345.893 
 3580000   0.79944984  -0.24191265    2.2018761    35438.159 
 3590000   0.80755728  -0.23771256    2.1989314     35380.55 
 3600000   0.79949243  -0.24611946    2.1970689    35375.212 
 3610000   0.80555572  -0.23042715    2.2149307    35422.836 
 3620000   0.80324885  -0.23857678    2.1804609    35288.707 
 3630000    0.8066545  -0.24507038    2.2294825    35533.322 
 3640000   0.80137586  -0.23705491    2.2017093    35409.479 
 3650000   0.79954105  -0.23120303    2.1906576    35371.474 
 3660000   0.79972349  -0.24616814    2.2069569    35420.687 
 3670000   0.80277516  -0.24304575    2.2042777    35362.952 
 3680000   0.79780156  -0.24573307    2.2202113    35593.724 
 3690000    0.8004092  -0.22640858    2.2076911    35497.093 
 3700000    0.7982824  -0.24119953    2.2021249    35454.322 
 3710000   0.80465513  -0.23754285    2.1894925    35308.855 
 3720000    0.8001933   -0.2403812    2.2052302    35370.491 
 3730000   0.79652405  -0.23914384    2.1908751     35445.86 
 3740000   0.79560502  -0.24513567    2.1778942    35353.424 
 3750000   0.80805944  -0.24052825    2.2101695    35417.627 
 3760000    0.7960062  -0.23684834    2.1785566    35367.464 
 3770000   0.80297639  -0.24665632    2.1782558     35244.25 
 3780000   0.80439466  -0.23770982    2.1916645    35279.722 
 3790000   0.79485653  -0.24327348    2.1828049      35340.7 
 3800000   0.80137016  -0.24255618    2.1927274    35377.753 
 3810000   0.80033306  -0.23546991    2.1741435    35303.087 
 3820000   0.79491774  -0.24548372    2.1875457    35390.298 
 3830000   0.79358565  -0.24188139     2.182108    35321.783 
 3840000   0.80883743      -0.2469    2.2106042    35431.256 
 3850000   0.79744913   -0.2447973    2.2010072    35430.624 
 3860000    0.8072002  -0.24359937    2.2032118    35443.702 
 3870000   0.79666391  -0.24886103    2.1795716     35366.89 
 3880000   0.80036487  -0.24253517    2.1958881    35411.744 
 3890000   0.80683454  -0.23475143    2.1943283    35350.463 
 3900000   0.79984621  -0.23954564    2.1917015    35371.292 
 3910000   0.79474866  -0.24059373    2.1739995    35315.509 
 3920000   0.80153144  -0.24300741    2.2080169    35452.514 
 3930000   0.80080901  -0.22998607    2.1945735    35327.845 
 3940000   0.79882489  -0.24134973    2.1804634    35388.189 
 3950000   0.80251402  -0.25273445    2.1993271     35442.52 
 3960000   0.79605379  -0.24062915    2.1821841    35345.023 
 3970000   0.80583018  -0.24163537    2.2244507    35550.301 
 3980000   0.80142155  -0.23570705    2.1877469    35369.062 
 3990000   0.80067287  -0.24879813    2.1940333    35363.367 
 4000000   0.80270723  -0.25054379    2.1976862    35375.297 
 4010000   0.79770987  -0.22899745    2.1903463    35379.057 
 4020000   0.79939485  -0.24812044     2.202199    35410.203 
 4030000    0.7935139  -0.23689793    2.1925817    35460.801 
 4040000   0.79658329  -0.24084888    2.1939861    35449.319 
 4050000   0.80232188  -0.23808419    2.1934136    35354.406 
 4060000   0.80744123  -0.24904985    2.1856755    35241.835 
 4070000   0.79662383  -0.24588397    2.1949461    35393.667 
 4080000   0.79965921  -0.23998584    2.2070095    35440.205 
 4090000   0.79583259  -0.23638938     2.202347    35482.837 
 4100000   0.80987078  -0.24326096    2.1943048    35330.937 
 4110000   0.79486775  -0.24126944     2.182803    35350.431 
 4120000   0.79303778  -0.23625962    2.1736698    35272.293 
 4130000   0.79870426  -0.24658444    2.1816748    35295.641 
 4140000   0.79517228   -0.2445236    2.1849051    35359.503 
 4150000    0.7947109  -0.23006474    2.1969891    35481.671 
 4160000   0.80616379   -0.2425927    2.2046719    35409.809 
 4170000   0.79739038  -0.24138952    2.2059193    35493.891 
 4180000   0.80023881  -0.24600922    2.1824352    35268.629 
 4190000   0.79556671  -0.23505006    2.1627572    35264.351 
 4200000   0.79686501   -0.2418509    2.1914324    35367.663 
 4210000   0.80847875   -0.2511984    2.1971203    35342.503 
 4220000   0.79779635  -0.23957213    2.1866544    35339.867 
 4230000   0.80044407  -0.23308543    2.1848128    35339.613 
 4240000   0.79901708   -0.2330726    2.1711273    35251.229 
 4250000   0.79824071   -0.2490082     2.180066    35338.936 
 4260000    0.7888793  -0.23683832    2.1832129    35404.745 
 4270000   0.79624399  -0.24351767    2.1740644    35336.006 
 4280000   0.79236842  -0.23159522     2.193254    35427.078 
 4290000   0.79359453  -0.23702748    2.1861294    35454.931 
 4300000   0.79921929  -0.24403339    2.1912359    35391.922 
 4310000   0.79843492  -0.24518362     2.178913    35270.351 
 4320000   0.80996466  -0.23772531     2.204875    35380.348 
 4330000   0.79425067  -0.23381949    2.2022406    35459.413 
 4340000    0.8036555  -0.24291958    2.1967226    35449.653 
 4350000   0.79975416  -0.23637887     2.195091    35409.272 
 4360000    0.7954162  -0.23739137      2.17245    35328.876 
 4370000   0.80315954  -0.24205485    2.1920032    35318.254 
 4380000   0.79606675  -0.24807863    2.1639057    35193.559 
 4390000   0.80161841  -0.24073881    2.1756636    35276.752 
 4400000   0.79617371   -0.2391789    2.1745848    35321.104 
 4410000   0.79572172   -0.2328766    2.1627553    35241.163 
 4420000   0.79998633  -0.24333267    2.1819087    35339.265 
 4430000   0.79872012  -0.24207356    2.1853285    35348.781 
 4440000   0.79798313  -0.24113531    2.1763193    35314.743 
 4450000   0.79727426  -0.24465003    2.1732337    35330.836 
 4460000    0.7977966  -0.24035917     2.196729    35367.015 
 4470000     0.796703  -0.24304949    2.1903177    35353.578 
 4480000    0.7974559  -0.22972877    2.1965394    35402.116 
 4490000   0.80503761  -0.23871612    2.2058365    35423.352 
 4500000   0.80521958  -0.23608891    2.1842629    35356.905 
 4510000   0.80676676  -0.24413591     2.209133    35447.395 
 4520000   0.79891066  -0.24481671    2.1980454    35435.909 
 4530000   0.80250775  -0.23748861     2.189103    35369.621 
 4540000   0.81169917  -0.24988013    2.1961129    35342.536 
 4550000   0.80049244  -0.23769245    2.1857463    35337.791 
 4560000   0.80293872   -0.2475663    2.1860604    35318.481 
 4570000   0.79584121  -0.24009436    2.1739875    35303.439 
 4580000   0.80427722  -0.23564244    2.1859506    35327.189 
 4590000   0.79762103  -0.24296278    2.1705994     35295.38 
 4600000   0.79927544  -0.24590558    2.2069488    35471.929 
 4610000   0.80507235  -0.24611078     2.176832    35243.761 
 4620000   0.80112892  -0.24448585    2.1742106    35250.272 
 4630000   0.80087465  -0.23923121    2.1637434    35189.601 
 4640000   0.79389785   -0.2456533    2.1646208    35316.252 
 4650000   0.80058028   -0.2426183     2.190222    35372.542 
 4660000   0.80227955  -0.24810262    2.2020921    35392.188 
 4670000   0.79815641  -0.24249617    2.1849033    35335.288 
 4680000   0.80280924  -0.23452797    2.1874161    35325.624 
 4690000   0.80103695  -0.24115513    2.1831423    35302.234 
 4700000   0.80216812  -0.23904106        2.183    35252.607 
 4710000   0.80300744  -0.24733821    2.1863811    35283.078 
 4720000   0.79846052  -0.24246929    2.1950466    35365.609 
 4730000   0.80662231  -0.24171256    2.1875301    35259.759 
 4740000   0.80468592   -0.2481844    2.1972631    35362.309 
 4750000   0.79840542  -0.24320708    2.1837331    35366.568 
 4760000   0.80122556  -0.24136977    2.1930604    35355.588 
 4770000   0.79643363  -0.23731269    2.1775274    35336.884 
 4780000   0.79917386  -0.24979302     2.167507    35221.732 
 4790000   0.80224626  -0.24536697    2.1969247    35417.407 
 4800000   0.81274932  -0.24717676     2.222267    35392.115 
 4810000   0.80198102  -0.24624897     2.176385    35252.648 
 4820000   0.79662177  -0.23625172    2.1870868    35366.562 
 4830000   0.81079764  -0.23833484    2.1939882    35296.113 
 4840000    0.7977757  -0.24592956    2.1834349    35322.239 
 4850000       0.8001  -0.24222534    2.1711162    35191.867 
 4860000   0.80691948  -0.24263461    2.2001142     35394.26 
 4870000   0.80532921  -0.24320194    2.1949749    35362.143 
 4880000   0.79793736  -0.24004628    2.1941461    35380.474 
 4890000   0.79908345  -0.23746444    2.1868966    35379.419 
 4900000   0.80251165  -0.23778233    2.1775394    35273.439 
 4910000   0.80087203  -0.24013894    2.1892891     35315.42 
 4920000   0.79391233  -0.23802521    2.1848274    35390.575 
 4930000   0.80331157   -0.2599865    2.1594707    35142.311 
 4940000   0.80387738   -0.2337222    2.1894034    35314.603 
 4950000   0.80246769   -0.2357424     2.182214    35373.976 
 4960000   0.79962167  -0.23744038    2.1799243    35311.464 
 4970000   0.80171704  -0.24838697    2.1717139    35284.162 
 4980000   0.79846708  -0.24345853    2.1827222     35355.57 
 4990000   0.79598609  -0.23995066    2.1680104    35269.682 
 5000000   0.79865869  -0.23916838    2.1734733    35305.227 
 5010000   0.79887829  -0.24827188    2.1692347    35262.049 
 5020000   0.79438954  -0.23970343    2.1716534    35353.509 
 5030000   0.79739126  -0.24169899    2.1879698    35406.834 
 5040000   0.79577791  -0.24229797    2.1674532    35275.804 
 5050000   0.80591335   -0.2514478    2.1751823    35228.894 
 5060000   0.80221141  -0.23677708    2.1994382    35402.634 
 5070000   0.79790517  -0.23943024    2.1679706    35263.201 
 5080000   0.79958936  -0.23960559    2.1933039    35431.141 
 5090000   0.80016769   -0.2418765    2.1985662    35423.955 
 5100000   0.80021762  -0.22789346    2.1647085    35233.657 
 5110000   0.79864322  -0.24083302    2.1872606    35336.372 
 5120000   0.79868027  -0.23109098    2.1946678    35399.905 
 5130000   0.80034242     -0.24255    2.1897276    35389.195 
 5140000   0.80401754  -0.24208274    2.1885789     35316.23 
 5150000   0.80213838  -0.24741245    2.1783106    35305.703 
 5160000   0.79560793  -0.24320596    2.1852215     35400.33 
 5170000   0.79515921  -0.24238716    2.1887088      35439.4 
 5180000   0.80761285  -0.24183242    2.1949298    35339.112 
 5190000   0.81025929  -0.24266045    2.1910035     35303.66 
 5200000   0.79653352  -0.23621116    2.1908434    35417.447 
 5210000   0.80572203    -0.238465    2.1909159    35341.294 
 5220000   0.80430253  -0.23576895    2.1997063    35444.931 
 5230000   0.79662794  -0.24654546    2.1863442    35430.349 
 5240000   0.79616097  -0.23680707    2.1804358     35343.63 
 5250000    0.7970882  -0.24817122    2.1786355    35348.533 
 5260000   0.79712005  -0.24568783    2.1732382    35270.119 
 5270000   0.79639907  -0.24533779    2.1801397     35328.16 
 5280000   0.80136243  -0.23804452    2.1938519    35335.464 
 5290000   0.80982427  -0.24501683    2.1985477    35353.225 
 5300000    0.8002849  -0.24549141    2.1913041    35353.265 
 5310000   0.79444851  -0.23907493    2.1855496    35354.877 
 5320000   0.80670817  -0.24384467    2.1922438    35357.155 
 5330000   0.80458133  -0.24053392    2.1951618    35389.585 
 5340000    0.7986669  -0.24220139    2.1835866    35351.072 
 5350000   0.79447237  -0.24049667    2.1821458    35374.764 
 5360000   0.79996072  -0.24254763     2.185259    35383.035 
 5370000   0.79570546  -0.24059255    2.1727725    35320.124 
 5380000    0.7946744  -0.24506922    2.1642845    35291.446 
 5390000   0.79652538   -0.2504887    2.1768511     35302.21 
 5400000   0.80367552  -0.23838711    2.1650512    35214.084 
 5410000   0.80336568  -0.24205335    2.1707556    35178.478 
 5420000   0.80458496  -0.23743412    2.1893538    35362.894 
 5430000   0.79806967  -0.24517903    2.1698386    35248.554 
 5440000   0.80567725  -0.24710678    2.2189309    35510.618 
 5450000   0.79687071  -0.25056982    2.1580045    35204.351 
 5460000    0.8036361  -0.24062351    2.1693467    35233.269 
 5470000   0.80763056  -0.24770317    2.1796488    35262.549 
 5480000   0.79913896  -0.24155784    2.1747029    35282.708 
 5490000   0.80267821  -0.24299988     2.172253    35274.039 
 5500000    0.8019179  -0.24727819    2.1698625    35192.038 
 5510000   0.79591175  -0.23633057    2.1756861    35316.484 
 5520000   0.80253224  -0.25175119    2.1677735    35267.907 
 5530000   0.80047028  -0.24358902    2.1751139    35297.141 
 5540000   0.80060339  -0.24260567    2.1674403      35244.8 
 5550000   0.79988536  -0.24197478    2.1700224    35216.407 
 5560000   0.80066298  -0.23787681    2.1752959    35332.347 
 5570000   0.79286995  -0.24266065    2.1616179    35202.242 
 5580000   0.80411786  -0.24712137    2.1964726     35340.13 
 5590000   0.79638032  -0.22591634    2.1764637    35356.169 
 5600000   0.79987593  -0.23378462    2.1626073    35247.531 
 5610000   0.80071567  -0.23836862    2.1833954    35361.318 
 5620000   0.79585543  -0.23515937    2.1785531     35378.37 
 5630000   0.80296851  -0.24298116    2.1705905    35249.692 
 5640000   0.79932583  -0.24060594    2.2059573     35479.35 
 5650000   0.79456524  -0.22920783    2.1799545    35407.209 
 5660000   0.79618709   -0.2539747    2.1853814    35404.128 
 5670000   0.80156698  -0.25276285    2.1832816    35306.159 
 5680000   0.80555001   -0.2426912    2.1848394    35313.061 
 5690000   0.80051604   -0.2479207    2.1922637    35458.462 
 5700000   0.79594906  -0.24465131    2.1657919    35207.006 
 5710000   0.80393399  -0.24079448    2.1891985    35325.073 
 5720000   0.79774792  -0.24494732    2.1544267    35163.364 
 5730000   0.80213488  -0.24052394    2.1673711    35267.402 
 5740000    0.8029101  -0.24688167    2.1800181    35309.446 
 5750000   0.79954947  -0.24342473     2.179082    35340.931 
 5760000   0.79798755   -0.2440397     2.155894    35234.702 
 5770000   0.79908731  -0.24003633     2.167838    35253.471 
 5780000   0.79880315  -0.24832603    2.1810833    35356.906 
 5790000    0.8067775  -0.24302906    2.1946563    35344.246 
 5800000   0.79279456  -0.23975681    2.1813144    35416.172 
 5810000   0.80415985  -0.23659471    2.1885636    35354.713 
 5820000   0.79996291  -0.23140976    2.1579334    35184.236 
 5830000   0.79665537  -0.23773454    2.1705463    35317.137 
 5840000   0.80035008  -0.24446925    2.1807455    35311.288 
 5850000   0.79721962  -0.24110791    2.1774299    35333.529 
 5860000   0.80446838  -0.24127686    2.2014377    35414.271 
 5870000   0.79766532  -0.24193422    2.1723393    35274.035 
 5880000   0.79671775  -0.24673504    2.1737473     35291.58 
 5890000   0.79081361  -0.24104926    2.1530049    35225.821 
 5900000   0.80374758  -0.25439483    2.1831453    35331.979 
 5910000   0.79805447  -0.24814793      2.17886    35328.533 
 5920000   0.79912762  -0.25074217    2.1724776    35301.774 
 5930000   0.80271854  -0.24029045    2.1814358    35291.585 
 5940000   0.80431562  -0.23465142    2.1907058    35372.829 
 5950000   0.79618295  -0.24656014    2.1513629    35179.995 
 5960000   0.79479536  -0.23678945    2.1750244    35382.577 
 5970000   0.79947002  -0.23483211    2.1768272    35347.099 
 5980000   0.79850562  -0.23164109    2.1686659    35293.536 
 5990000   0.79229516   -0.2460113    2.1698283     35276.54 
 6000000   0.79949492  -0.23780181    2.1894358    35402.728 
 6010000   0.79855416  -0.24903728    2.1773288    35335.292 
 6020000   0.79802453  -0.23636238    2.1692672    35252.808 
 6030000   0.79925262   -0.2389882     2.178075     35341.37 
 6040000   0.79977258  -0.24136826     2.182648    35341.294 
 6050000   0.79524684   -0.2525142    2.1715904    35296.709 
 6060000   0.79659142  -0.24213445    2.1729607    35292.996 
 6070000   0.80252611  -0.24269628    2.1877448    35391.049 
 6080000   0.80635921  -0.23769511    2.1895708    35335.316 
 6090000    0.8022441  -0.24590573    2.1904703     35418.86 
 6100000   0.80012651  -0.23528078    2.1849388    35328.503 
 6110000   0.79808124  -0.24307891    2.1716689     35276.08 
 6120000   0.80561389  -0.23683375    2.1802585    35259.677 
 6130000   0.80016417  -0.24475792    2.1775638    35301.957 
 6140000   0.79257654  -0.24558978    2.1529712     35235.48 
 6150000   0.80720613  -0.24175828    2.1879724    35334.431 
 6160000   0.79429401  -0.23183587    2.1768644    35357.219 
 6170000    0.7914381  -0.23586315    2.1546869    35271.164 
 6180000   0.79552563  -0.23921273    2.1790336     35359.02 
 6190000    0.7995266  -0.23979883    2.1820636    35334.383 
 6200000   0.79564613  -0.23813421    2.1574803    35236.052 
 6210000   0.79259953  -0.24700228    2.1602262    35265.276 
 6220000   0.79932982  -0.23900537     2.166721    35283.834 
 6230000   0.80115757  -0.23736995    2.1989081    35436.405 
 6240000   0.80171864  -0.24290552    2.1749088    35253.572 
 6250000   0.79910791  -0.23895035    2.1717018     35313.53 
 6260000   0.79992498  -0.24104086    2.1708049    35276.807 
 6270000   0.79893287  -0.23943308    2.1664184    35255.992 
 6280000   0.79831958  -0.24605032    2.1737713    35341.679 
 6290000   0.79994363  -0.23770127    2.1726319    35291.996 
 6300000   0.79799007  -0.24357166      2.15954    35256.716 
 6310000   0.80216374  -0.23845494    2.1937322    35381.956 
 6320000    0.7999659  -0.24124898    2.1771178    35298.235 
 6330000   0.80163583  -0.23485456    2.1831828    35341.426 
 6340000    0.8038709  -0.24819218    2.1951725    35403.215 
 6350000   0.79445062  -0.24197443    2.1674948    35330.489 
 6360000   0.80199137  -0.24298072     2.179255    35299.843 
 6370000   0.80384288  -0.24216534    2.1714622    35253.521 
 6380000   0.79431211  -0.24478243    2.1641721    35285.448 
 6390000   0.80127085  -0.23643445    2.1844929    35353.336 
 6400000    0.8030327  -0.24365809    2.1774997    35334.791 
 6410000   0.79287543  -0.23717081    2.1413081    35143.391 
 6420000   0.79699665  -0.23427545     2.174654    35296.128 
 6430000   0.79851565  -0.23692325    2.1759255    35295.664 
 6440000   0.80483562  -0.23997404     2.192962    35426.764 
 6450000   0.79904798  -0.23806413    2.1824106    35407.421 
 6460000   0.80214593  -0.24212172    2.1961189    35431.674 
 6470000   0.79782709  -0.23767408     2.186624    35440.999 
 6480000   0.80480694  -0.24128364    2.1766216    35298.049 
 6490000   0.80124941  -0.24421279    2.1709865    35245.676 
 6500000   0.80806614  -0.23414226      2.18828    35292.248 
 6510000   0.80135587  -0.24631633    2.1856667    35386.097 
 6520000    0.7950032  -0.24297051    2.1620986     35237.21 
 6530000   0.79895449  -0.23586237    2.1736448    35315.382 
 6540000   0.80252807  -0.23564694    2.1751142    35295.435 
 6550000   0.80359793  -0.24529997    2.1827628    35288.141 
 6560000   0.80127695  -0.24282608    2.1656526    35216.474 
 6570000   0.79910017  -0.23821981     2.164991    35241.089 
 6580000   0.80351334  -0.24989544    2.1812008    35307.454 
 6590000   0.79808025  -0.24187329    2.1804916    35329.722 
 6600000   0.79982246  -0.24526556    2.1833379    35391.683 
 6610000   0.80257039  -0.24282097     2.174489    35298.754 
 6620000   0.79458735   -0.2394628    2.1628649    35362.618 
 6630000   0.79722651   -0.2367617      2.18359     35344.82 
 6640000   0.79761521  -0.23880159    2.1986934    35479.266 
 6650000   0.79562709  -0.23488738    2.1772146    35308.584 
 6660000   0.80272157  -0.24588975    2.1813945    35371.437 
 6670000   0.79881463  -0.24394646    2.1574335    35168.743 
 6680000   0.79374948  -0.24463248    2.1758847    35386.509 
 6690000   0.79779737  -0.23792962    2.1851463    35396.094 
 6700000   0.79326035  -0.24569338    2.1772897    35354.379 
 6710000   0.79948117  -0.23989546    2.1720265    35355.157 
 6720000   0.80001226  -0.23357773    2.1662266    35331.115 
 6730000   0.80116615  -0.25032179    2.1626163    35209.028 
 6740000   0.80014133  -0.23069921    2.1948336    35417.041 
 6750000   0.80179007  -0.23883518    2.1916511    35411.349 
 6760000   0.79828365  -0.23958321    2.1660446    35276.738 
 6770000   0.80194768  -0.24409619    2.1846148    35354.877 
 6780000   0.79364845  -0.24170564    2.1522612    35249.563 
 6790000   0.79217494  -0.24266013    2.1533281    35277.449 
 6800000   0.80685657  -0.23650294    2.1807192    35281.101 
 6810000   0.80471512  -0.24040439    2.1890983    35326.221 
 6820000   0.80333659   -0.2407064    2.1888551    35384.683 
 6830000   0.80409057  -0.24349227     2.187726    35330.763 
 6840000   0.79466209   -0.2431199    2.1690348    35325.445 
 6850000   0.79421332  -0.24852357    2.1657864    35309.107 
 6860000   0.79707095  -0.24640844    2.1749644    35374.055 
 6870000   0.80195235  -0.24356398    2.1863795    35369.189 
 6880000   0.79850133  -0.23971854    2.1791217    35353.244 
 6890000   0.80175288   -0.2474423    2.1775477    35355.576 
 6900000    0.7975204  -0.24021945    2.1728394    35301.567 
 6910000   0.79607506   -0.2470523    2.1625591    35306.535 
 6920000    0.8050048  -0.22996336    2.1773913    35312.637 
 6930000   0.80242321  -0.25017535    2.1698679    35250.152 
 6940000   0.80210063  -0.23245202    2.1719184    35292.702 
 6950000   0.80601791  -0.23602949    2.1964571      35425.5 
 6960000   0.80042532   -0.2511106    2.1718411    35312.993 
 6970000   0.80480048  -0.24550608    2.1806903    35324.292 
 6980000   0.80134703  -0.24527569    2.1747547     35346.52 
 6990000    0.8026211  -0.23593253    2.1919524    35414.694 
 7000000   0.80176698  -0.23571921    2.1844711    35416.424 
Loop time of 4587.23 on 216 procs for 5000000 steps with 28900 atoms

Performance: 470872.697 tau/day, 1089.983 timesteps/s
99.9% CPU use with 216 MPI tasks x 1 OpenMP threads

MPI task timing breakdown:
Section |  min time  |  avg time  |  max time  |%varavg| %total
---------------------------------------------------------------
Pair    | 428.82     | 486.82     | 601.54     | 124.7 | 10.61
Bond    | 8.3266     | 9.5878     | 11.435     |  19.4 |  0.21
Neigh   | 681.4      | 712.49     | 745.91     |  51.6 | 15.53
Comm    | 969.44     | 1109.5     | 1239.2     | 153.3 | 24.19
Output  | 1.99       | 1.995      | 2.04       |   0.3 |  0.04
Modify  | 1881.6     | 2020.9     | 2146.2     | 100.7 | 44.05
Other   |            | 246        |            |       |  5.36

Nlocal:    133.796 ave 236 max 109 min
Histogram: 40 112 34 10 7 6 2 3 0 2
Nghost:    974.319 ave 1251 max 866 min
Histogram: 24 63 52 29 21 10 8 5 2 2
Neighs:    4866.44 ave 11391 max 3423 min
Histogram: 65 94 30 9 6 5 3 0 3 1

Total # of neighbors = 1051150
Ave neighs/atom = 36.372
Ave special neighs/atom = 0.602076
Neighbor list builds = 693509
Dangerous builds = 26
System init for write_restart ...
Setting atom values ...
  3000 settings made for charge
Setting atom values ...
  3000 settings made for charge
Setting atom values ...
  3800 settings made for charge
Setting atom values ...
  1900 settings made for charge
System init for write_data ...
PPPM initialization ...
  using 12-bit tables for long-range coulomb (src/kspace.cpp:332)
  G vector (1/distance) = 1.20246
  grid = 108 108 108
  stencil order = 5
  estimated absolute RMS force accuracy = 0.000114599
  estimated relative force accuracy = 0.000114599
  using double precision FFTW3
  3d grid and FFT values/proc = 12167 5832
WARNING: Neighbor exclusions used with KSpace solver may give inconsistent Coulombic energies (src/neighbor.cpp:486)
Neighbor list info ...
  update every 1 steps, delay 0 steps, check yes
  max neighbors/atom: 2000, page size: 100000
  master list distance cutoff = 2.8
  ghost atom cutoff = 2.8
  binsize = 1.4, bins = 24 24 24
  2 neighbor lists, perpetual/occasional/extra = 2 0 0
  (1) pair lj/cut, perpetual
      attributes: half, newton on
      pair build: half/bin/newton
      stencil: half/bin/3d/newton
      bin: standard
  (2) pair coul/long, perpetual, skip from (1)
      attributes: half, newton on
      pair build: skip
      stencil: none
      bin: none
PPPM initialization ...
  using 12-bit tables for long-range coulomb (src/kspace.cpp:332)
  G vector (1/distance) = 1.20246
  grid = 108 108 108
  stencil order = 5
  estimated absolute RMS force accuracy = 0.000114599
  estimated relative force accuracy = 0.000114599
  using double precision FFTW3
  3d grid and FFT values/proc = 12167 5832
WARNING: Neighbor exclusions used with KSpace solver may give inconsistent Coulombic energies (src/neighbor.cpp:486)
Neighbor list info ...
  update every 1 steps, delay 0 steps, check yes
  max neighbors/atom: 2000, page size: 100000
  master list distance cutoff = 2.8
  ghost atom cutoff = 2.8
  binsize = 1.4, bins = 24 24 24
  2 neighbor lists, perpetual/occasional/extra = 2 0 0
  (1) pair lj/cut, perpetual
      attributes: half, newton on
      pair build: half/bin/newton
      stencil: half/bin/3d/newton
      bin: standard
  (2) pair coul/long, perpetual, skip from (1)
      attributes: half, newton on
      pair build: skip
      stencil: none
      bin: none
Setting up Verlet run ...
  Unit style    : lj
  Current step  : 7000000
  Time step     : 0.005
Per MPI rank memory allocation (min/avg/max) = 16.15 | 16.59 | 17.18 Mbytes
Step Temp Press TotEng Volume 
 7000000   0.80176698  -0.89594499    6.8432426    35416.424 
 7010000   0.79865942  -0.38418768    3.2905227    35416.424 
 7020000   0.79839564  -0.29878306    3.2490141    35416.424 
 7030000   0.80463304  -0.24841707    3.1804426    35416.424 
 7040000   0.80180086  -0.22148891    3.1496568    35416.424 
 7050000   0.80057297  -0.17395812    3.1296802    35416.424 
 7060000   0.80649332  -0.17909076    3.1313752    35416.424 
 7070000   0.80593153  -0.15532411    3.1194678    35416.424 
 7080000   0.79714552  -0.19691404    3.1183079    35416.424 
 7090000   0.79456114  -0.12792142    3.0967458    35416.424 
 7100000   0.80175272   -0.1352158    3.1052654    35416.424 
 7110000   0.79865754   -0.1307953    3.0823687    35416.424 
 7120000   0.79590024  -0.13631343    3.0798867    35416.424 
 7130000   0.79617614 -0.096675592     3.084019    35416.424 
 7140000    0.7980116  -0.16767539    3.0742687    35416.424 
 7150000    0.7885392  -0.12208209    3.0513756    35416.424 
 7160000    0.7962488  -0.10925387    3.0850328    35416.424 
 7170000   0.80358448  -0.19641485    3.0824774    35416.424 
 7180000    0.8038989  -0.19353754    3.0963723    35416.424 
 7190000   0.79800777  -0.12244729    3.0708778    35416.424 
 7200000   0.79902394 -0.091495306    3.0803461    35416.424 
 7210000   0.80073163 -0.052555942    3.0765434    35416.424 
 7220000   0.80374228 -0.096082925    3.0901508    35416.424 
 7230000   0.80495487   -0.1103835     3.083789    35416.424 
 7240000   0.80233896  -0.10290332    3.0750507    35416.424 
 7250000   0.79638455  -0.11085548    3.0686642    35416.424 
 7260000   0.80455718 -0.042825877    3.0779333    35416.424 
 7270000    0.8023947  -0.17409936     3.077199    35416.424 
 7280000   0.79846112  -0.14514529    3.0807685    35416.424 
 7290000   0.80115094  -0.10882039    3.0700113    35416.424 
 7300000   0.80246762  -0.15888779    3.0884282    35416.424 
 7310000   0.79403482  -0.15352602    3.0483308    35416.424 
 7320000   0.80015247  -0.14264981    3.0698908    35416.424 
 7330000   0.80388031  -0.10132374      3.09144    35416.424 
 7340000    0.7964847  -0.10208312    3.0516129    35416.424 
 7350000   0.79969409  -0.11142987    3.0741121    35416.424 
 7360000   0.79031182   -0.1780704    3.0555393    35416.424 
 7370000   0.79615097  -0.17716306    3.0541585    35416.424 
 7380000   0.80653782   -0.1181217    3.0752333    35416.424 
 7390000   0.80425313  -0.15283401     3.060455    35416.424 
 7400000    0.7976494   -0.1017821    3.0508047    35416.424 
 7410000   0.80338433  -0.13726373    3.0718878    35416.424 
 7420000    0.8010053 -0.072006257    3.0600983    35416.424 
 7430000   0.80330399 -0.067940956    3.0613888    35416.424 
 7440000   0.79858366 -0.077868729    3.0666588    35416.424 
 7450000   0.80031468    -0.184148     3.066772    35416.424 
 7460000    0.8038349    -0.128742    3.0709913    35416.424 
 7470000   0.80292737 -0.050822689    3.0433801    35416.424 
 7480000   0.80303124  -0.18765305    3.0673882    35416.424 
 7490000   0.79789116  -0.16545335      3.04737    35416.424 
 7500000   0.79431258   -0.1408067    3.0566338    35416.424 
 7510000   0.80668324  -0.22588015      3.07902    35416.424 
 7520000   0.79590706  -0.11170594     3.040075    35416.424 
 7530000    0.8034559  -0.13149056    3.0568966    35416.424 
 7540000   0.79990598  -0.17904927    3.0612976    35416.424 
 7550000   0.80135851  -0.12452792    3.0635674    35416.424 
 7560000   0.79999516 -0.088806631    3.0560094    35416.424 
 7570000   0.80609128  -0.12009627    3.0552344    35416.424 
 7580000   0.79959736 -0.055595202    3.0527437    35416.424 
 7590000   0.79916193  -0.12230408    3.0313234    35416.424 
 7600000   0.79740397  -0.16956568    3.0496132    35416.424 
 7610000      0.80136  -0.15914451    3.0419402    35416.424 
 7620000   0.80069069   -0.1649346    3.0497171    35416.424 
 7630000   0.79575366  -0.16118694    3.0462707    35416.424 
 7640000   0.79965467 -0.073520455    3.0360694    35416.424 
 7650000   0.80109786  -0.11999175    3.0494657    35416.424 
 7660000   0.79883361  -0.10671268    3.0240537    35416.424 
 7670000   0.79647057  -0.16637818    3.0535618    35416.424 
 7680000    0.8037335  -0.10541046    3.0536771    35416.424 
 7690000   0.79716141  -0.16397734    3.0514907    35416.424 
 7700000    0.8020535 -0.071425613    3.0521076    35416.424 
 7710000   0.79836875  -0.12686771    3.0440998    35416.424 
 7720000   0.79841452   -0.1344894    3.0589613    35416.424 
 7730000   0.80603945  -0.10150415    3.0636883    35416.424 
 7740000   0.79882724 -0.058206511    3.0644804    35416.424 
 7750000   0.79874666  -0.15682934      3.05638    35416.424 
 7760000   0.80339409  -0.10954464    3.0497337    35416.424 
 7770000   0.80374504  -0.11893965     3.033668    35416.424 
 7780000   0.79713178  -0.10368271    3.0413789    35416.424 
 7790000   0.80291077 -0.016215442    3.0360017    35416.424 
 7800000   0.79470491  -0.18216719    3.0493183    35416.424 
 7810000   0.80624241  -0.11524609    3.0553414    35416.424 
 7820000   0.80044328  -0.11435025    3.0675228    35416.424 
 7830000   0.80225517    -0.136543    3.0360644    35416.424 
 7840000   0.80183943  -0.14848329    3.0599813    35416.424 
 7850000     0.802073  -0.18853362     3.035182    35416.424 
 7860000   0.79837416  -0.16000381    3.0398413    35416.424 
 7870000   0.79562263  -0.16373312    3.0396645    35416.424 
 7880000   0.80733531  -0.15329149    3.0568184    35416.424 
 7890000   0.79612942 -0.079211135    3.0471715    35416.424 
 7900000   0.78996446  -0.14907272     3.034993    35416.424 
 7910000   0.80046664 -0.076907165    3.0400625    35416.424 
 7920000   0.80189645 -0.088766763    3.0610864    35416.424 
 7930000   0.80698642  -0.17419582    3.0641157    35416.424 
 7940000   0.80003759   -0.1718489    3.0403783    35416.424 
 7950000   0.79659815  -0.07638683     3.033656    35416.424 
 7960000   0.79653135  -0.17283602    3.0363612    35416.424 
 7970000   0.79424376  -0.12092041    3.0403573    35416.424 
 7980000   0.78913698  -0.10412116     3.036194    35416.424 
 7990000   0.79915177 -0.085266919    3.0343151    35416.424 
 8000000   0.80399633  -0.13009406    3.0494785    35416.424 
 8010000   0.80211114 -0.087039783    3.0427474    35416.424 
 8020000   0.80340764 -0.087121033    3.0576447    35416.424 
 8030000   0.80465418  -0.12155594    3.0542675    35416.424 
 8040000   0.80117282  -0.13121913     3.041334    35416.424 
 8050000   0.80081256 -0.049345225    3.0537143    35416.424 
 8060000    0.7985936  -0.11211167    3.0341551    35416.424 
 8070000   0.80521659 -0.027444195    3.0512285    35416.424 
 8080000   0.80517641  -0.13166076     3.043566    35416.424 
 8090000   0.80266836  -0.03869699    3.0451889    35416.424 
 8100000   0.80262263 -0.062355477    3.0597933    35416.424 
 8110000   0.80225392  -0.10970271    3.0569011    35416.424 
 8120000   0.80004507  -0.12437613    3.0388592    35416.424 
 8130000   0.80650844 -0.073101084    3.0479617    35416.424 
 8140000   0.80761029  -0.12542856    3.0486195    35416.424 
 8150000   0.79996346 -0.081522951    3.0479885    35416.424 
 8160000   0.79500174  -0.19460249    3.0371496    35416.424 
 8170000   0.80170456  -0.10012715    3.0479741    35416.424 
 8180000   0.80193152   -0.1433403    3.0541096    35416.424 
 8190000   0.80134528 -0.072263363    3.0484719    35416.424 
 8200000   0.79123421 -0.055980982    3.0274846    35416.424 
 8210000   0.80050213  -0.14570838    3.0541285    35416.424 
 8220000   0.79648969 -0.030407628    3.0327448    35416.424 
 8230000    0.8030054 -0.053621555    3.0553875    35416.424 
 8240000   0.80219328  -0.15026211    3.0463019    35416.424 
 8250000   0.80013888 -0.074510292    3.0281103    35416.424 
 8260000   0.80215009 -0.085015116    3.0543263    35416.424 
 8270000   0.79576026  -0.12736396    3.0300754    35416.424 
 8280000   0.79611691  -0.16276588    3.0403728    35416.424 
 8290000   0.80334261  -0.15475771    3.0312629    35416.424 
 8300000   0.79815808  -0.14538021    3.0340139    35416.424 
 8310000   0.79992369 -0.085138887    3.0225601    35416.424 
 8320000   0.79241965  -0.15260782    3.0217615    35416.424 
 8330000   0.80039433  -0.19454686    3.0239224    35416.424 
 8340000   0.80057334  -0.15944164    3.0259941    35416.424 
 8350000    0.7991341  -0.12202899     3.044912    35416.424 
 8360000   0.79996286  -0.17840531    3.0444305    35416.424 
 8370000   0.79542244  -0.12525933    3.0305386    35416.424 
 8380000   0.79606417 -0.099207715    3.0250887    35416.424 
 8390000   0.80327786  -0.11589473    3.0317147    35416.424 
 8400000   0.80258304  -0.10993475    3.0310373    35416.424 
 8410000   0.80224624 -0.084117339    3.0317747    35416.424 
 8420000   0.80067107 -0.061937611    3.0392954    35416.424 
 8430000   0.79551231  -0.11962289    3.0379201    35416.424 
 8440000   0.79940408  -0.16194478    3.0461444    35416.424 
 8450000   0.80107657 -0.087348472    3.0463871    35416.424 
 8460000    0.7980636  -0.16854648    3.0486257    35416.424 
 8470000   0.80397277  -0.19551404    3.0349792    35416.424 
 8480000   0.79622014  -0.17204949    3.0267681    35416.424 
 8490000    0.7953919  -0.16088979     3.035593    35416.424 
 8500000   0.79496539  -0.12346524    3.0274723    35416.424 
 8510000   0.80055063  -0.10653247    3.0361478    35416.424 
 8520000   0.80223875  -0.16179103    3.0350485    35416.424 
 8530000   0.80518597 -0.092254447    3.0400152    35416.424 
 8540000   0.80304623  -0.10054394    3.0306916    35416.424 
 8550000   0.80434644 -0.044414048    3.0470515    35416.424 
 8560000   0.79933515  -0.12365664    3.0333407    35416.424 
 8570000   0.80140351 -0.080487865    3.0386922    35416.424 
 8580000   0.78332037  -0.10580579    3.0149643    35416.424 
 8590000   0.80741876  -0.10162059    3.0390032    35416.424 
 8600000   0.80362232   -0.1283443    3.0388153    35416.424 
 8610000   0.79978029  -0.12175935    3.0555411    35416.424 
 8620000   0.79913209  -0.05031273    3.0127284    35416.424 
 8630000    0.8045234 -0.098469308    3.0471756    35416.424 
 8640000    0.7960075  -0.11798093    3.0290623    35416.424 
 8650000   0.80611752  -0.19195983     3.042954    35416.424 
 8660000   0.79907034  -0.07874441    3.0361663    35416.424 
 8670000   0.79676395  -0.16282152    3.0086599    35416.424 
 8680000   0.80058962  -0.10339894    3.0260379    35416.424 
 8690000   0.80217653   -0.1323005    3.0420217    35416.424 
 8700000   0.80031348  -0.12077088    3.0442072    35416.424 
 8710000   0.79718293  -0.13813301    3.0360252    35416.424 
 8720000   0.80035714  -0.10581291    3.0261497    35416.424 
 8730000   0.79907013    -0.131176    3.0302698    35416.424 
 8740000   0.80417564  -0.15257074    3.0497558    35416.424 
 8750000   0.80167858 -0.054825214    3.0399113    35416.424 
 8760000   0.79645847 -0.085537681    3.0233371    35416.424 
 8770000   0.79645753  -0.11700902    3.0200425    35416.424 
 8780000   0.80797863  -0.19119575    3.0342393    35416.424 
 8790000   0.80212755 -0.070086642    3.0223581    35416.424 
 8800000   0.79718135  -0.13800363    3.0279972    35416.424 
 8810000   0.79017057  -0.13165244    3.0102424    35416.424 
 8820000   0.80182696  -0.12533736     3.034455    35416.424 
 8830000   0.79766742  -0.17316959    3.0183738    35416.424 
 8840000    0.8023155  -0.11750411     3.035367    35416.424 
 8850000   0.79645014 -0.083772391    3.0356924    35416.424 
 8860000   0.80288593  -0.10554897     3.034034    35416.424 
 8870000   0.79582626  -0.12124295    3.0301609    35416.424 
 8880000   0.79140367  -0.12104852    3.0209532    35416.424 
 8890000   0.79768717  -0.16421934    3.0399225    35416.424 
 8900000   0.79487542  -0.13827639    3.0254532    35416.424 
 8910000   0.79258906   -0.1196438    3.0116121    35416.424 
 8920000   0.79740146  -0.15812026    3.0448029    35416.424 
 8930000   0.80118799 -0.076072152     3.027015    35416.424 
 8940000   0.80287506 -0.099096739    3.0286389    35416.424 
 8950000   0.80137953  -0.12535939    3.0296997    35416.424 
 8960000   0.80185725 -0.067734794    3.0460742    35416.424 
 8970000   0.80265057  -0.12232983    3.0155817    35416.424 
 8980000   0.80012423 -0.057973836    3.0237219    35416.424 
 8990000   0.80379136  -0.12907048    3.0309307    35416.424 
 9000000   0.80062321  -0.10641324    3.0349414    35416.424 
 9010000   0.80922668  -0.23291613    3.0554055    35416.424 
 9020000   0.80315152 -0.066447837     3.028646    35416.424 
 9030000   0.80811483 -0.085518892    3.0296747    35416.424 
 9040000   0.80269613 -0.094293835    3.0310267    35416.424 
 9050000   0.80817439  -0.15524204     3.031919    35416.424 
 9060000   0.79671344 -0.065440486    3.0236605    35416.424 
 9070000   0.80314027  -0.14014449    3.0316953    35416.424 
 9080000   0.79557837   -0.1272221    3.0296073    35416.424 
 9090000    0.7997341  -0.14884952    3.0500277    35416.424 
 9100000   0.80331868  -0.09481976    3.0468013    35416.424 
 9110000   0.80349202  -0.17892049    3.0439449    35416.424 
 9120000   0.80410545  -0.16314673    3.0373326    35416.424 
 9130000   0.80720133 -0.062293519    3.0390072    35416.424 
 9140000    0.7944297  -0.11040713    3.0223143    35416.424 
 9150000   0.80285346  -0.20951522    3.0447651    35416.424 
 9160000     0.799828  -0.17283518    3.0370776    35416.424 
 9170000    0.7972737  -0.14178811    3.0349142    35416.424 
 9180000   0.80029933 -0.059676351    3.0267393    35416.424 
 9190000   0.79842714  -0.11036423    3.0351737    35416.424 
 9200000      0.80164 -0.094395344    3.0574729    35416.424 
 9210000    0.7976454 -0.060982777     3.034934    35416.424 
 9220000   0.80212923  -0.15899665    3.0545459    35416.424 
 9230000   0.79933843  -0.19086777    3.0357924    35416.424 
 9240000   0.80151864 -0.074605275    3.0521234    35416.424 
 9250000    0.7929648  -0.10313803    3.0096671    35416.424 
 9260000   0.79902359  -0.10877715     3.024903    35416.424 
 9270000   0.80612258 -0.037391706    3.0364271    35416.424 
 9280000   0.80342212  -0.15244857    3.0505195    35416.424 
 9290000   0.80151775  -0.10750499    3.0296888    35416.424 
 9300000   0.79385812 -0.098184963    3.0263511    35416.424 
 9310000   0.80432049  -0.11477378    3.0343539    35416.424 
 9320000   0.79769303 -0.088652974    3.0346676    35416.424 
 9330000   0.79577666  -0.04181221    3.0316143    35416.424 
 9340000   0.79479908 -0.062895493    3.0280806    35416.424 
 9350000   0.80242268  -0.11008322    3.0362222    35416.424 
 9360000   0.80282661  -0.14411724    3.0396008    35416.424 
 9370000   0.79242921  -0.10797282    3.0284329    35416.424 
 9380000   0.79335786  -0.17820903    3.0210406    35416.424 
 9390000   0.79670731  -0.14921857     3.021145    35416.424 
 9400000   0.80268423 -0.073878702    3.0356097    35416.424 
 9410000   0.79543052  -0.15484393    3.0267916    35416.424 
 9420000   0.79446022  -0.16644837     3.021786    35416.424 
 9430000   0.79771456  -0.12402213    3.0388091    35416.424 
 9440000   0.80328936   -0.1459997    3.0419039    35416.424 
 9450000   0.80086938   -0.2325333    3.0368385    35416.424 
 9460000   0.80197352  -0.13268729    3.0415009    35416.424 
 9470000   0.79588312  -0.10441813    3.0385937    35416.424 
 9480000   0.79598222  -0.11606442    3.0267301    35416.424 
 9490000   0.80826833  -0.12264808    3.0549375    35416.424 
 9500000   0.79982712  -0.15812323    3.0293942    35416.424 
 9510000   0.80224012  -0.10043337    3.0518845    35416.424 
 9520000   0.80228609 -0.072156914    3.0411578    35416.424 
 9530000   0.79363154  -0.12166729    3.0185076    35416.424 
 9540000   0.79731989  -0.12134001    3.0362711    35416.424 
 9550000    0.7920474 -0.091411241    3.0210436    35416.424 
 9560000   0.79914453  -0.12678302    3.0313607    35416.424 
 9570000   0.79758549  -0.14959005    3.0470387    35416.424 
 9580000   0.80600013  -0.11461377    3.0362312    35416.424 
 9590000   0.79875029  -0.10256886    3.0362735    35416.424 
 9600000   0.79903986  -0.14029507    3.0152948    35416.424 
 9610000   0.80800519 -0.086670072    3.0396841    35416.424 
 9620000   0.79871139  -0.13937671    3.0291633    35416.424 
 9630000   0.80507262   -0.1938457    3.0355641    35416.424 
 9640000    0.7903841  -0.15272741    3.0322152    35416.424 
 9650000   0.80279994  -0.17136445    3.0464982    35416.424 
 9660000   0.79266902  -0.14018611    3.0209971    35416.424 
 9670000   0.80382904 -0.096786068    3.0439212    35416.424 
 9680000   0.80893916 -0.095079074    3.0713248    35416.424 
 9690000   0.80091054  -0.18389832    3.0217775    35416.424 
 9700000   0.80599681 -0.094642208    3.0472904    35416.424 
 9710000   0.79858151 -0.094405707    3.0354422    35416.424 
 9720000   0.80103933  -0.11508511     3.023364    35416.424 
 9730000   0.79698056 -0.091032592    3.0325737    35416.424 
 9740000   0.79905183 -0.080244775    3.0268061    35416.424 
 9750000    0.8042675   -0.1122901    3.0432416    35416.424 
 9760000    0.7952996  -0.13926409    3.0087652    35416.424 
 9770000   0.79679988  -0.12570291    3.0328725    35416.424 
 9780000   0.80158379  -0.18408892     3.038973    35416.424 
 9790000   0.79804137  -0.18428628    3.0342872    35416.424 
 9800000   0.80151083  -0.12616811    3.0396715    35416.424 
 9810000   0.80427632 -0.092402296    3.0291868    35416.424 
 9820000     0.804033  -0.16303231    3.0383667    35416.424 
 9830000   0.80157664 -0.080223323    3.0258813    35416.424 
 9840000   0.79956447  -0.09805208    3.0251579    35416.424 
 9850000   0.80588718 -0.035660361    3.0297008    35416.424 
 9860000   0.80490144  -0.15806131    3.0286033    35416.424 
 9870000   0.80217696 -0.098688307     3.030418    35416.424 
 9880000   0.79708583  -0.12530516    3.0222847    35416.424 
 9890000   0.80489289 -0.097155721    3.0451685    35416.424 
 9900000   0.80089636 -0.092659733    3.0289327    35416.424 
 9910000   0.79959529 -0.082554509    3.0274996    35416.424 
 9920000   0.79895797  -0.12134036    3.0405038    35416.424 
 9930000   0.80734192   -0.0573503    3.0391308    35416.424 
 9940000   0.80377909  -0.10812002    3.0252093    35416.424 
 9950000   0.79679947 -0.071181042    3.0108168    35416.424 
 9960000   0.80255072  -0.11246195    3.0297496    35416.424 
 9970000   0.80811622  -0.13777169    3.0342414    35416.424 
 9980000   0.79728934  -0.13017458    3.0211432    35416.424 
 9990000   0.79798274 -0.091830591    3.0525502    35416.424 
10000000    0.7982785  -0.20435656    3.0195587    35416.424 
10010000   0.79923346  -0.08277123    3.0179494    35416.424 
10020000   0.79768102 -0.091621671    3.0249757    35416.424 
10030000   0.80123679  -0.03592141    3.0418894    35416.424 
10040000   0.79746275  -0.17613112     3.026293    35416.424 
10050000    0.7997581  -0.16006218     3.038363    35416.424 
10060000    0.7992548  -0.11777879    3.0200568    35416.424 
10070000   0.80225023  -0.09756168    3.0209811    35416.424 
10080000   0.79472363 -0.066687801    3.0194116    35416.424 
10090000   0.79104861  -0.12333042    3.0205888    35416.424 
10100000   0.79640856  -0.13545627     3.027339    35416.424 
10110000   0.80399423  -0.13790213    3.0233135    35416.424 
10120000   0.80303901 -0.087125237    3.0416108    35416.424 
10130000    0.7953095  -0.12876632    3.0210657    35416.424 
10140000   0.79978023  -0.15882615    3.0225924    35416.424 
10150000   0.80389687 -0.093892333      3.04477    35416.424 
10160000   0.80044629 -0.077265971    3.0362117    35416.424 
10170000   0.80160054  -0.13924465    3.0164067    35416.424 
10180000   0.80444626   -0.1489664    3.0258618    35416.424 
10190000   0.80190358 -0.055584936    3.0242678    35416.424 
10200000   0.79296373  -0.12126505     3.013124    35416.424 
10210000   0.79903025  -0.17421484    3.0220981    35416.424 
10220000   0.80161876   -0.1341508     3.035078    35416.424 
10230000   0.79798605  -0.17613116    3.0251991    35416.424 
10240000   0.79715952 -0.092086836    3.0158211    35416.424 
10250000    0.8037776  -0.11425049    3.0297418    35416.424 
10260000   0.79951112 -0.083510535    3.0313854    35416.424 
10270000   0.80515202 -0.048991581     3.034002    35416.424 
10280000   0.79293505 -0.085986289     3.018499    35416.424 
10290000   0.79290002   -0.1228061    3.0132691    35416.424 
10300000   0.80487734 -0.074152475     3.024751    35416.424 
10310000   0.79296105 -0.093557081      3.02331    35416.424 
10320000   0.80200266 -0.096636581    3.0197959    35416.424 
10330000   0.80349625 -0.097340242    3.0239805    35416.424 
10340000   0.81150528  -0.16191709    3.0356473    35416.424 
10350000    0.8014329  -0.15446572    3.0105184    35416.424 
10360000   0.80281626  -0.17784563    3.0252075    35416.424 
10370000   0.80484152 -0.070104848    3.0327031    35416.424 
10380000   0.79692287 -0.060445567    3.0310987    35416.424 
10390000   0.79701536 -0.097384006    3.0177833    35416.424 
10400000   0.80338113  -0.10971188    3.0164522    35416.424 
10410000   0.80185045  -0.11859012    3.0234249    35416.424 
10420000   0.80272706 -0.099072584    3.0311779    35416.424 
10430000    0.8042728 -0.077202698    3.0297684    35416.424 
10440000   0.80530736  -0.15077855     3.047876    35416.424 
10450000   0.80174241 -0.067082314    3.0170767    35416.424 
10460000   0.79648035 -0.075188203     3.014698    35416.424 
10470000   0.79973943  -0.16312052    3.0495849    35416.424 
10480000   0.79083304   -0.1304268    3.0057653    35416.424 
10490000   0.79896995  -0.13001763    3.0204143    35416.424 
10500000   0.80696506  -0.14028442    3.0193235    35416.424 
10510000   0.80401973  -0.16990397    3.0280686    35416.424 
10520000   0.80462087  -0.15101031    3.0378526    35416.424 
10530000   0.80269639 -0.080487134    3.0296914    35416.424 
10540000   0.80474672  -0.10455267    3.0398806    35416.424 
10550000     0.798645  -0.12396804    3.0116761    35416.424 
10560000   0.80016633  -0.10792235    3.0216083    35416.424 
10570000   0.80536607  -0.13706135    3.0166233    35416.424 
10580000   0.80176469 -0.047861319    3.0322231    35416.424 
10590000   0.79511256 -0.055409745    3.0199924    35416.424 
10600000   0.79080519  -0.12886529    3.0038963    35416.424 
10610000   0.80132397  -0.13948227     3.020369    35416.424 
10620000   0.79958001 -0.080619477    3.0322907    35416.424 
10630000   0.80216422  -0.17484375    3.0249104    35416.424 
10640000    0.8026701 -0.099377491     3.026101    35416.424 
10650000   0.79871242  -0.15182878     3.021347    35416.424 
10660000   0.80308057  -0.10118637    3.0242852    35416.424 
10670000    0.7986789  -0.11678633    3.0269465    35416.424 
10680000   0.80187013  -0.10757235    3.0215684    35416.424 
10690000   0.80889086 -0.091724589    3.0271355    35416.424 
10700000   0.79671219    -0.141288    3.0160164    35416.424 
10710000   0.80287402  -0.16154335    3.0132348    35416.424 
10720000   0.79788548  -0.13985731    3.0260411    35416.424 
10730000    0.8056844 -0.098893026    3.0183127    35416.424 
10740000    0.8003936 -0.085216252    3.0287645    35416.424 
10750000    0.7976354 -0.066117685    3.0062514    35416.424 
10760000    0.7930417  -0.10481858    3.0053687    35416.424 
10770000   0.80162405  -0.13145213    3.0259148    35416.424 
10780000   0.79861394  -0.10487341    3.0060239    35416.424 
10790000   0.79770727 -0.075092462    3.0318443    35416.424 
10800000   0.80678386  -0.09706675     3.030351    35416.424 
10810000    0.7971822  -0.11651935    3.0193642    35416.424 
10820000   0.79733433  -0.10244976    3.0320474    35416.424 
10830000   0.80429179   -0.1255801    3.0361793    35416.424 
10840000   0.80136301  -0.12324105    3.0248132    35416.424 
10850000   0.80105885  -0.11955332    3.0256066    35416.424 
10860000   0.80295902  -0.16810876    3.0214766    35416.424 
10870000   0.80271919  -0.15929728    3.0164788    35416.424 
10880000   0.79707566  -0.14606473    3.0393163    35416.424 
10890000   0.79594964 -0.091331462    3.0064399    35416.424 
10900000    0.7996119 -0.088149297    3.0207954    35416.424 
10910000   0.79528253 -0.086312859    3.0153202    35416.424 
10920000   0.79466016  -0.16653892    3.0375703    35416.424 
10930000   0.80656005 -0.096846119     3.032599    35416.424 
10940000   0.79499372  -0.16559942    3.0129837    35416.424 
10950000   0.80546796  -0.14142183    3.0494115    35416.424 
10960000   0.80113095  -0.11042356    3.0134248    35416.424 
10970000   0.79737061  -0.12954015    3.0343732    35416.424 
10980000   0.79879098   -0.1115217    2.9993854    35416.424 
10990000   0.80033933 -0.098363123    3.0346662    35416.424 
11000000   0.80776036  -0.11164082    3.0390686    35416.424 
11010000    0.7957891  -0.14481153    3.0194513    35416.424 
11020000   0.80103953  -0.14944729    3.0301045    35416.424 
11030000   0.79862418  -0.18008876    3.0283364    35416.424 
11040000   0.79291934 -0.089556929     3.015019    35416.424 
11050000   0.80233541 -0.090732789    3.0196055    35416.424 
11060000   0.79907524 -0.041736415    3.0364175    35416.424 
11070000   0.79969967  -0.12234296    3.0249731    35416.424 
11080000   0.80480486  -0.11044274    3.0171619    35416.424 
11090000   0.79595757  -0.15433838    3.0201394    35416.424 
11100000   0.79920431   -0.1132715    3.0158405    35416.424 
11110000   0.80226996 -0.094912458    3.0312844    35416.424 
11120000   0.79800872 -0.080694019    3.0145481    35416.424 
11130000   0.80340133  -0.11903642    3.0391264    35416.424 
11140000   0.79751082  -0.15201461    3.0223079    35416.424 
11150000   0.79757065 -0.052423165    3.0092288    35416.424 
11160000    0.8035389  -0.13739212    3.0292609    35416.424 
11170000   0.80311352 -0.073682003    3.0317759    35416.424 
11180000   0.81353331  -0.14757083    3.0442965    35416.424 
11190000   0.79776677  -0.12025818    3.0006008    35416.424 
11200000   0.79961645  -0.11320083    3.0296443    35416.424 
11210000   0.80028017 -0.068303787    3.0120705    35416.424 
11220000   0.79498675   -0.1276733    3.0304512    35416.424 
11230000   0.79568185  -0.10761752    3.0127929    35416.424 
11240000   0.80076804  -0.10342488    3.0243935    35416.424 
11250000   0.80022757  -0.15097421    3.0038612    35416.424 
11260000   0.79890365  -0.10758815    3.0175775    35416.424 
11270000   0.79752571  -0.13175739    3.0319944    35416.424 
11280000   0.80192791  -0.17369982     3.035551    35416.424 
11290000   0.80496519 -0.064264869    3.0338771    35416.424 
11300000   0.80268587 -0.093665678    3.0137824    35416.424 
11310000   0.79738275  -0.10137288    3.0243372    35416.424 
11320000   0.80274115  -0.11755441    3.0188509    35416.424 
11330000   0.79565598  -0.18637003    3.0241275    35416.424 
11340000   0.80348489  -0.19285357    3.0358033    35416.424 
11350000   0.80455368  -0.13384082    3.0337866    35416.424 
11360000   0.79758627  -0.10932078      3.00289    35416.424 
11370000   0.80461533  -0.16010896    3.0341535    35416.424 
11380000   0.79584575  -0.09283842    3.0112954    35416.424 
11390000   0.79949515  -0.11768715    3.0239655    35416.424 
11400000   0.79737688 -0.092538701    3.0036795    35416.424 
11410000   0.80853523 -0.072051949    3.0491352    35416.424 
11420000   0.80275621 -0.084372851    3.0194075    35416.424 
11430000   0.79448272 -0.075579516    3.0266434    35416.424 
11440000   0.80363474  -0.10565573    3.0426454    35416.424 
11450000   0.79711131  -0.14415696    3.0187053    35416.424 
11460000   0.80610195  -0.13446251    3.0273652    35416.424 
11470000   0.79950226  -0.19044832    2.9956755    35416.424 
11480000   0.80118613  -0.12812599    3.0307464    35416.424 
11490000   0.79584038  -0.16383674    2.9986197    35416.424 
11500000   0.80241617  -0.10706278    3.0152613    35416.424 
11510000   0.79528287  -0.13455653    3.0205664    35416.424 
11520000   0.80230078  -0.17016674    3.0143758    35416.424 
11530000   0.80157268 -0.085366286    3.0397072    35416.424 
11540000   0.80148771  -0.13745787    3.0399549    35416.424 
11550000   0.80084162 -0.052672655    3.0314044    35416.424 
11560000    0.8059796  -0.17156388    3.0360861    35416.424 
11570000    0.8003688  -0.10578844    3.0194974    35416.424 
11580000   0.80393215  -0.17343929    3.0319565    35416.424 
11590000   0.80144177  -0.13010787    3.0367771    35416.424 
11600000   0.79657186  -0.12683754    3.0352159    35416.424 
11610000   0.80091476  -0.13497707    3.0398672    35416.424 
11620000    0.7968351  -0.11542812    3.0190341    35416.424 
11630000   0.79938097  -0.15928952     3.016108    35416.424 
11640000   0.80029822  -0.08404009    3.0291806    35416.424 
11650000   0.79637008  -0.15674359    3.0013784    35416.424 
11660000   0.80178142 -0.099529758    3.0291614    35416.424 
11670000   0.79238451  -0.10974048    3.0075027    35416.424 
11680000   0.80594058  -0.19928655    3.0344046    35416.424 
11690000   0.80500855  -0.16071269    3.0385544    35416.424 
11700000   0.79766258  -0.12760384    3.0186604    35416.424 
11710000   0.79416247  -0.10565217    3.0204803    35416.424 
11720000   0.79899213 -0.091299248    3.0176594    35416.424 
11730000   0.79763069   -0.1739337    3.0192374    35416.424 
11740000    0.7967136  -0.11313239    3.0188849    35416.424 
11750000   0.79889755  -0.16671662    3.0289697    35416.424 
11760000   0.79831857  -0.11180163    3.0220453    35416.424 
11770000   0.79893847  -0.11921416    3.0182956    35416.424 
11780000   0.79866188 -0.032564615    3.0299377    35416.424 
11790000    0.7950413 -0.097496952     3.021333    35416.424 
11800000    0.7940989 -0.080488077    2.9985621    35416.424 
11810000   0.80868927  -0.14204691    3.0437359    35416.424 
11820000   0.79941718  -0.11239423    3.0172536    35416.424 
11830000   0.79328277  -0.14348482    3.0064619    35416.424 
11840000   0.80057803 -0.067708506    3.0155353    35416.424 
11850000   0.79998306  -0.13391225    3.0336134    35416.424 
11860000   0.79957276  -0.17487735    3.0269203    35416.424 
11870000   0.80024564 -0.069256851     3.015862    35416.424 
11880000   0.80363903  -0.14190609     3.036906    35416.424 
11890000   0.79925341  -0.18572671    3.0088115    35416.424 
11900000   0.80046502  -0.11477748    3.0130415    35416.424 
11910000   0.79988749 -0.072645856    3.0219852    35416.424 
11920000   0.80303872  -0.13886629     3.021461    35416.424 
11930000    0.7981427  -0.15169305    3.0290702    35416.424 
11940000   0.80640107   -0.1072605    3.0193958    35416.424 
11950000    0.8007127  -0.13886798    3.0290479    35416.424 
11960000   0.80056369  -0.14103492    3.0158443    35416.424 
11970000   0.80057927  -0.10257485    3.0217366    35416.424 
11980000   0.80267815  -0.17268343    3.0232955    35416.424 
11990000   0.80279136  -0.14074529    3.0251455    35416.424 
12000000   0.80079608 -0.070471705    3.0158359    35416.424 
Loop time of 56550.8 on 216 procs for 5000000 steps with 28900 atoms

Performance: 38195.716 tau/day, 88.416 timesteps/s
99.9% CPU use with 216 MPI tasks x 1 OpenMP threads

MPI task timing breakdown:
Section |  min time  |  avg time  |  max time  |%varavg| %total
---------------------------------------------------------------
Pair    | 514.91     | 756.4      | 994.74     | 353.2 |  1.34
Bond    | 7.0393     | 10.409     | 13.437     |  33.6 |  0.02
Kspace  | 49788      | 50765      | 51392      | 127.3 | 89.77
Neigh   | 708.35     | 737.39     | 769.47     |  45.5 |  1.30
Comm    | 1384.8     | 1782.3     | 2515.9     | 544.5 |  3.15
Output  | 3.0196     | 3.0213     | 3.0641     |   0.2 |  0.01
Modify  | 1917.4     | 2083.9     | 2249.9     | 166.2 |  3.69
Other   |            | 412.2      |            |       |  0.73

Nlocal:    133.796 ave 216 max 3 min
Histogram: 3 3 1 7 5 68 92 21 14 2
Nghost:    974.287 ave 1139 max 334 min
Histogram: 1 2 3 3 6 6 16 30 103 46
Neighs:    5151.06 ave 11117 max 26 min
Histogram: 7 4 6 27 103 40 16 10 2 1

Total # of neighbors = 1112628
Ave neighs/atom = 38.4992
Ave special neighs/atom = 0.602076
Neighbor list builds = 671727
Dangerous builds = 0
System init for write_restart ...
PPPM initialization ...
  using 12-bit tables for long-range coulomb (src/kspace.cpp:332)
  G vector (1/distance) = 1.20246
  grid = 108 108 108
  stencil order = 5
  estimated absolute RMS force accuracy = 0.000114599
  estimated relative force accuracy = 0.000114599
  using double precision FFTW3
  3d grid and FFT values/proc = 12167 5832
WARNING: Neighbor exclusions used with KSpace solver may give inconsistent Coulombic energies (src/neighbor.cpp:486)
Neighbor list info ...
  update every 1 steps, delay 0 steps, check yes
  max neighbors/atom: 2000, page size: 100000
  master list distance cutoff = 2.8
  ghost atom cutoff = 2.8
  binsize = 1.4, bins = 24 24 24
  2 neighbor lists, perpetual/occasional/extra = 2 0 0
  (1) pair lj/cut, perpetual
      attributes: half, newton on
      pair build: half/bin/newton
      stencil: half/bin/3d/newton
      bin: standard
  (2) pair coul/long, perpetual, skip from (1)
      attributes: half, newton on
      pair build: skip
      stencil: none
      bin: none
Total wall time: 17:18:04
