1900
Atoms. Timestep: 0
H 20.097500 1.192220 5.213280
H 20.084400 1.181820 5.207230
H 20.516500 2.079270 4.925010
H 20.068900 1.190470 5.223740
H 20.493300 2.091690 4.941950
H 20.526100 2.092150 4.933640
H 21.064800 1.055950 5.358630
H 21.078800 1.068400 5.360640
H 21.051900 1.067160 5.359260
H 22.060100 0.944574 5.508000
H 22.045200 0.930082 5.510030
H 21.712900 1.814580 5.157950
H 21.701700 1.799440 5.154780
H 21.682900 1.814600 5.151530
H 22.035000 0.943855 5.494780
H 22.357100 2.812380 4.858560
H 22.384000 2.792430 4.864440
H 22.391400 2.810790 4.869760
H 21.330900 2.685350 4.808280
H 21.358200 2.668790 4.799540
H 21.365700 2.684590 4.807910
H 21.248000 3.581220 12.384500
H 22.111800 3.142770 12.749800
H 20.513400 4.307540 12.452400
H 20.104800 5.127130 12.935300
H 21.121800 4.481570 13.226700
H 21.921000 3.899180 13.375400
H 20.131800 5.820360 13.703700
H 21.730200 4.655590 14.001000
H 20.931000 5.237980 13.852400
H 21.539400 5.412000 14.626700
H 22.338600 4.829620 14.775300
H 22.212400 5.729970 15.617500
H 20.587100 6.201500 14.551800
H 21.348600 6.168410 15.252300
H 19.158000 25.918900 5.388630
H 19.203100 25.899500 5.393410
H 19.809100 26.593500 4.949760
H 20.261400 27.537200 4.948640
H 20.282200 27.514400 4.952270
H 19.823400 26.599100 4.949020
H 19.173100 26.694100 5.999730
H 19.151200 26.715700 5.992840
H 19.713300 27.513400 5.774650
H 19.702200 27.513000 5.777350
H 18.020200 25.916900 7.033410
H 18.084800 25.851000 7.050830
H 18.503200 25.671200 6.151300
H 18.566800 25.625600 6.162720
H 18.575400 27.511500 7.419420
H 18.614000 26.669900 6.828450
H 18.582300 26.714700 6.815220
H 18.584000 27.464500 7.434770
H 17.886500 26.515200 7.819760
H 17.838400 26.590200 7.798580
H 19.143100 27.488700 6.606060
H 19.144300 27.512500 6.597040
H 18.006500 27.510500 8.241810
H 18.024900 27.440300 8.263480
H 20.399700 28.462200 5.392360
H 20.450300 28.434800 5.395490
H 20.194800 33.074700 5.571880
H 20.171300 33.071900 5.578160
H 20.177700 33.065700 5.570590
H 21.404000 33.045200 5.702510
H 20.771400 32.291900 5.917730
H 22.388800 32.909500 5.865280
H 20.773000 32.297700 5.910240
H 22.387100 32.921900 5.838030
H 22.407200 32.923300 5.858040
H 20.791800 32.301000 5.913370
H 21.408300 33.035400 5.713880
H 21.425900 33.047200 5.710680
H 19.672200 28.307600 6.383680
H 19.785500 29.353700 7.042780
H 19.719500 29.351800 7.049400
H 19.137500 28.309200 7.201240
H 19.113100 28.283400 7.212390
H 19.706400 28.310200 6.378860
H 20.268500 29.108000 6.160670
H 19.083100 29.078000 7.818710
H 19.130700 29.106000 7.805440
H 20.201400 29.126500 6.161290
H 21.728700 31.927100 6.146230
H 21.712900 31.924100 6.131000
H 21.706500 31.916500 6.155620
H 18.479600 28.431400 8.244320
H 18.462800 28.378300 8.263100
H 24.006100 0.678339 5.812830
H 24.001100 0.697244 5.765820
H 22.666000 1.691300 5.287050
H 22.682200 1.673570 5.306180
H 24.022600 0.696929 5.802720
H 23.025700 0.804210 5.661430
H 23.912800 1.643240 5.449470
H 23.925400 1.663220 5.444110
H 23.898700 1.664550 5.411400
H 23.018100 0.820549 5.630300
H 23.041300 0.820752 5.655360
H 22.694200 1.690760 5.305310
H 23.319100 2.417050 5.102330
H 23.328300 2.436950 5.102630
H 23.297000 2.438740 5.079320
H 22.873300 3.109690 13.450300
H 22.529400 4.073210 14.149700
H 23.328600 3.490820 14.298300
H 23.355600 4.184060 15.066800
H 22.947000 5.003640 15.549600
H 23.576700 32.644800 6.047620
H 23.574000 32.629700 6.095050
H 22.754400 32.053300 6.208090
H 22.739100 32.051100 6.181280
H 22.732300 32.040200 6.220520
H 23.594000 32.645800 6.082350
H 29.213400 4.139770 2.235490
H 29.176400 4.147420 2.193280
H 29.386400 4.897270 1.551370
H 29.365800 4.904290 1.512780
H 30.193600 5.549150 2.172080
H 30.206100 5.558720 2.204370
H 29.869300 5.774260 1.287810
H 29.865000 5.773760 1.254740
H 29.396600 3.704720 3.156870
H 29.347700 3.705960 3.113900
H 29.887000 3.708700 4.068610
H 29.833700 3.698190 4.027960
H 31.207700 5.944900 3.563640
H 31.195200 5.913090 3.537500
H 29.849400 4.735980 2.641350
H 29.878100 4.741480 2.678210
H 30.215000 4.525940 3.594770
H 30.178000 4.511360 3.558690
H 30.542900 5.343190 3.120930
H 30.522300 5.324530 3.089430
H 30.850900 5.099920 4.006770
H 30.879700 5.127650 4.037480
H 30.504200 4.126200 4.690550
H 30.553100 4.150640 4.726420
H 31.179600 4.875300 4.924110
H 31.216500 4.912120 4.954040
H 31.678800 5.744780 4.666070
H 31.699400 5.789110 4.690480
H 30.540300 6.522860 1.488310
H 30.532700 6.535740 1.515430
H 31.198800 6.977680 2.173240
H 31.210800 6.950870 2.150890
H 30.866500 6.137700 2.620160
H 30.870900 6.160430 2.647080
H 31.696800 6.943110 3.064950
H 31.689200 6.981660 3.084980
H 31.868100 6.501640 3.985570
H 31.872500 6.546610 4.006360
H 3.796530 5.425150 5.643710
H 4.351130 5.795850 4.852020
H 3.106100 5.571710 6.401070
H 4.534630 7.579720 3.966550
H 4.114370 8.514900 4.110030
H 3.955450 6.970030 4.876870
H 3.289600 7.355570 5.515600
H 3.543070 6.390360 5.579650
H 4.621290 6.584480 4.238140
H 2.782680 9.285990 5.387500
H 3.701990 7.935240 4.812820
H 3.036140 8.320780 5.451550
H 3.473110 9.139440 4.630130
H 2.044570 7.131430 7.064650
H 2.623760 7.741120 6.154330
H 2.464840 6.196250 6.921170
H 2.877220 6.775910 6.218390
H 1.957910 8.126670 6.793070
H 2.228080 8.915290 6.179190
H 4.016280 8.074860 29.470000
H 4.431070 9.023390 29.473700
H 3.855430 7.164810 29.936500
H 3.991620 6.537090 30.748400
H 4.676180 7.289170 31.456700
H 4.409710 7.691640 30.580900
H 4.697540 8.620920 30.349500
H 4.964000 8.218460 31.225300
H 5.251820 9.147750 30.993800
H 4.988660 9.756240 29.946800
H 5.539650 10.077000 30.762400
H 4.388360 6.359880 31.688100
H 4.939340 6.680680 32.503800
H 5.496930 7.413530 32.976800
H 5.230470 7.816000 32.101000
H 5.911720 8.362060 32.980600
H 5.518290 8.745280 31.869600
H 5.936390 9.899830 31.702100
H 6.072580 9.272110 32.514000
H 3.836030 6.481960 12.939100
H 3.799210 6.494770 12.899700
H 3.797330 6.498610 12.900400
H 3.786440 6.485150 12.855300
H 3.078890 7.143120 12.691300
H 3.028960 7.143850 12.602100
H 3.039300 7.143770 12.629300
H 3.046270 7.159610 12.634400
H 3.912530 7.695350 12.698800
H 3.856440 7.703920 12.641900
H 3.863400 7.709280 12.661600
H 3.880060 7.711160 12.658100
H 4.837030 6.293910 13.124500
H 4.797130 6.322730 13.114900
H 4.793970 6.310300 13.107800
H 4.784390 6.303080 13.062000
H 4.791600 7.270750 12.915500
H 4.734160 7.283530 12.871800
H 4.742310 7.298760 12.904400
H 4.753920 7.286500 12.894800
H 5.765670 6.673740 13.217300
H 5.769150 6.645130 13.201000
H 5.755430 6.646440 13.166700
H 5.813690 6.629340 13.197900
H 5.587710 7.838050 12.918400
H 5.625240 7.822990 12.923100
H 5.561630 7.843600 12.911600
H 5.566400 7.864270 12.936600
H 2.714930 8.102690 12.370200
H 2.768510 8.100210 12.447500
H 2.721030 8.095820 12.376200
H 2.742040 8.116190 12.381100
H 3.808580 8.685310 12.451000
H 3.867100 8.672190 12.489800
H 3.840010 8.687360 12.445000
H 3.806200 8.684370 12.451700
H 2.988030 9.096800 12.273200
H 2.928480 9.104750 12.221800
H 2.966150 9.112020 12.208300
H 2.929660 9.095830 12.208200
H 4.746170 8.247590 12.706400
H 4.683920 8.263990 12.681600
H 4.687490 8.274790 12.693800
H 4.713860 8.262710 12.681700
H 5.511580 8.840300 12.726100
H 5.579810 8.799820 12.714000
H 5.511400 8.824050 12.721400
H 5.547650 8.814250 12.705300
H 4.700740 9.224430 12.497400
H 4.633680 9.244440 12.491500
H 4.673800 9.238910 12.468600
H 4.632670 9.250820 12.483300
H 3.678650 9.865840 12.214900
H 3.609310 9.875840 12.170300
H 3.658570 9.880280 12.162300
H 3.612410 9.881530 12.196600
H 4.633740 10.215100 12.255500
H 4.577850 10.226900 12.272700
H 4.655310 10.201300 12.288400
H 4.583440 10.224900 12.301300
H 5.581400 10.042800 12.508000
H 5.575770 10.054800 12.487900
H 5.656320 10.013200 12.473800
H 5.630390 10.026800 12.462900
H 6.445320 7.453750 13.179500
H 6.439350 7.423220 13.141500
H 6.504310 7.398380 13.139700
H 6.461560 7.413390 13.155100
H 6.723840 8.394970 12.965300
H 6.381450 9.365800 12.728900
H 6.335680 9.405820 12.758300
H 6.685680 8.409220 12.982300
H 6.652910 8.425280 12.993000
H 6.413450 9.352060 12.721600
H 6.653950 8.453760 13.011500
H 6.338870 9.384120 12.761200
H 5.888380 32.747200 11.768200
H 5.495270 32.851100 12.620800
H 5.476890 32.838200 12.713900
H 5.921910 32.777300 11.680400
H 5.585300 33.042500 13.723000
H 5.587550 33.036500 13.635100
H 9.054330 5.009400 5.912070
H 9.049780 5.042150 5.952150
H 9.093720 5.025860 5.986560
H 7.560500 4.276820 7.045870
H 7.568350 4.310360 7.064160
H 7.552890 4.261430 7.001170
H 8.178070 4.560460 6.232080
H 8.349510 4.693380 7.497440
H 8.359170 4.714410 7.523880
H 8.646580 4.840180 7.070070
H 9.121850 5.072160 6.985080
H 9.094150 5.076050 6.950580
H 9.530970 5.303930 7.017480
H 8.176220 4.589800 6.274700
H 8.204350 4.598440 6.299770
H 9.946860 5.487950 6.126890
H 9.947120 5.512670 6.164660
H 9.998170 5.478080 6.208450
H 9.883160 5.492610 7.402150
H 9.912660 5.476200 7.444800
H 10.675300 5.833950 6.906000
H 10.627800 5.875280 6.855290
H 10.616500 5.867880 6.818970
H 9.999480 5.583650 7.855470
H 10.883900 6.047390 7.802880
H 10.909400 6.032820 7.838980
H 7.346300 4.192420 8.013260
H 7.367620 4.187070 8.059040
H 7.356160 4.238810 8.074910
H 7.649250 4.344610 9.042730
H 7.613650 4.371930 8.997160
H 7.624610 4.402960 9.061200
H 8.230690 4.656160 7.960660
H 9.149980 5.118460 7.983600
H 8.393890 4.727280 8.495870
H 8.387290 4.760710 8.522400
H 8.699200 4.935890 8.798660
H 9.115080 5.119910 7.908070
H 9.138520 5.109950 7.949010
H 9.178100 5.164750 8.982120
H 9.182890 5.143840 8.947440
H 9.583590 5.399630 8.746060
H 8.283310 4.751870 9.689250
H 10.052100 5.679350 9.584060
H 10.716500 5.943080 8.852150
H 10.100800 5.630100 9.623320
H 9.940790 5.522500 8.443320
H 9.927530 5.526510 8.400580
H 10.677300 5.978390 8.814970
H 10.731600 5.926550 8.903030
H 10.943800 5.998100 7.892280
H 10.095600 5.638470 9.667430
H 8.329930 4.707220 9.733350
H 9.206230 5.211050 9.980640
H 8.301780 4.758830 9.758740
H 9.227270 5.177740 9.945860
H 9.175840 5.230410 9.904060
H 9.276220 0.649381 12.158600
H 9.249090 0.631216 12.178700
H 9.368500 0.834723 13.172900
H 9.357500 0.835510 13.187800
H 8.400190 0.626631 13.034900
H 8.387340 0.623979 13.069300
H 7.097530 0.677708 14.851600
H 7.114110 0.707679 14.905500
H 7.771030 0.646052 13.856500
H 7.771260 0.634808 13.812300
H 8.946000 0.926446 14.133400
H 8.941860 0.908549 14.113300
H 8.124860 0.879656 14.762100
H 8.110630 0.851077 14.727700
H 6.753140 32.834800 11.066000
H 6.709520 32.794000 11.139500
H 7.766240 33.008200 10.942100
H 7.720280 32.966000 10.996100
H 8.689750 33.251000 11.342100
H 8.649820 33.217100 11.376500
H 7.063360 33.027600 12.045200
H 7.092510 33.051100 11.981400
H 6.447040 33.049700 12.832300
H 6.463580 33.059200 12.758800
H 7.417190 33.261200 12.950800
H 7.431880 33.267300 12.896900
H 8.060820 33.259100 12.119500
H 8.033510 33.239200 12.163600
H 6.184560 33.305400 14.525200
H 6.174020 33.283700 14.451700
H 6.802950 33.275500 13.674300
H 6.800880 33.283300 13.738000
H 11.963600 2.393390 1.939480
H 11.590700 1.583140 1.034010
H 11.571000 1.583900 1.087190
H 11.741400 1.401110 2.041940
H 11.766000 1.424970 2.091410
H 11.847700 2.790520 1.029090
H 12.181500 3.336240 1.793970
H 12.161200 3.361810 1.787550
H 11.886100 2.459690 1.413990
H 12.045300 3.758940 0.877154
H 11.971900 3.259010 0.819252
H 12.267300 4.135560 1.199230
H 12.476900 4.212790 2.173950
H 12.095700 2.536920 2.388700
H 12.556500 5.298660 1.483690
H 12.621600 5.271370 1.545990
H 12.358800 4.330240 1.635620
H 12.353000 4.934880 0.604500
H 12.066900 1.785020 3.014220
H 12.010000 1.737600 2.983440
H 12.474800 3.933110 2.546020
H 12.277200 2.964690 2.697950
H 12.391100 3.413480 2.768690
H 12.657200 3.562930 3.714590
H 12.324500 2.502450 3.606220
H 12.600700 3.490710 3.743400
H 12.393100 2.567570 3.608350
H 12.772200 5.089350 2.553930
H 12.751500 5.139730 2.487920
H 12.788400 4.504410 3.304480
H 12.764600 4.437580 3.358240
H 11.598400 2.234910 33.078500
H 11.534100 2.219220 33.119400
H 11.665300 3.160700 32.709300
H 11.762300 3.181780 32.693300
H 11.929300 4.156060 32.815500
H 12.038500 4.170040 32.830500
H 12.255500 4.938610 33.409700
H 14.620800 30.813000 0.972723
H 14.636300 30.784700 0.946209
H 15.545600 30.563800 1.365620
H 15.564600 30.541200 1.334450
H 16.579200 30.599000 1.317610
H 16.597600 30.588000 1.284640
H 14.452200 32.337100 31.437900
H 14.458400 32.341900 31.447500
H 16.357300 32.687500 30.923400
H 15.313200 32.661700 30.963300
H 15.323700 32.652200 30.971400
H 16.346200 32.708600 30.913500
H 14.052600 31.280000 33.093000
H 14.061400 31.253400 33.072700
H 15.002000 31.452800 32.830900
H 16.276500 31.106400 33.340900
H 15.748600 31.094700 33.391700
H 15.295800 31.204800 33.171700
H 16.698000 31.267500 33.129600
H 16.936000 31.526500 32.717600
H 14.974700 31.723200 32.379200
H 13.994100 31.821600 32.209900
H 13.993100 31.839600 32.224000
H 15.955400 31.624900 32.548400
H 15.951500 31.625600 32.568900
H 16.900900 31.798500 32.306900
H 16.614900 32.044900 31.925100
H 15.634300 32.143300 31.755900
H 16.154400 32.156600 31.746200
H 15.204900 31.983800 32.008200
H 21.498800 0.669265 29.479400
H 20.506400 1.862540 30.740800
H 21.970900 0.683565 31.422800
H 20.852800 1.355990 29.907000
H 21.411800 1.019780 30.664900
H 21.261600 1.368370 31.590100
H 20.552400 2.053180 31.757300
H 22.442900 0.697865 33.366200
H 21.670400 1.380760 33.273100
H 20.978400 1.876840 32.684200
H 21.820700 1.032160 32.348000
H 17.444500 30.909400 0.841556
H 17.458500 30.912600 0.810108
H 22.271300 32.835200 29.572500
H 17.282100 32.438300 31.316300
H 17.274500 32.465000 31.301800
H 22.121100 33.183800 30.497700
H 17.916700 31.428100 32.886800
H 17.909800 31.411700 32.913800
H 17.850300 31.971300 32.044900
H 17.849300 31.996400 32.024000
H 22.963300 32.339100 30.161400
H 22.680100 32.847500 31.255600
H 23.389400 32.162700 31.088300
H 22.529900 33.196100 32.180700
H 23.089000 32.859900 32.938600
H 23.435400 32.353400 32.104800
H 4.367950 3.683850 18.206100
H 4.335640 3.719270 18.208100
H 4.238150 4.571760 17.689900
H 4.230570 4.605780 17.683800
H 4.982230 4.334770 18.652200
H 4.957150 4.360940 18.657500
H 4.486720 5.598620 17.540900
H 4.472310 5.570580 17.550900
H 5.034410 5.278130 18.324600
H 5.032680 5.300610 18.323900
H 5.654180 5.942280 18.773300
H 5.648680 5.929050 18.770600
H 4.826950 3.144760 18.961400
H 4.773780 3.176630 18.973200
H 5.492140 3.098940 19.753400
H 5.427570 3.123260 19.774100
H 5.503110 4.062940 19.440500
H 5.544320 4.042310 19.425800
H 5.596500 4.985680 19.098200
H 5.578650 5.002610 19.106900
H 5.700860 6.872410 18.443000
H 5.729720 6.881960 18.439700
H 5.035440 6.431760 17.817600
H 5.007700 6.412680 17.826600
H 6.185300 3.558680 20.369800
H 6.121850 3.573460 20.396200
H 6.200150 5.644280 19.556300
H 6.210770 5.636590 19.544200
H 6.720690 4.400770 20.645500
H 6.158600 4.693230 19.871800
H 6.124610 4.704610 19.889900
H 6.954860 5.399600 20.506600
H 6.926720 5.399440 20.530000
H 6.670580 4.406600 20.672900
H 7.622210 2.235960 23.663800
H 8.358730 2.467250 22.974000
H 8.346310 3.240180 23.608300
H 8.975060 4.006310 23.475300
H 9.616230 3.999510 22.707900
H 9.088590 3.112750 22.624100
H 8.333900 4.013120 24.242700
H 8.962650 4.779250 24.109600
H 9.591400 5.545380 23.976600
H 9.800270 4.889910 23.203000
H 7.076400 2.480850 24.508700
H 7.705150 3.246990 24.375700
H 7.051560 4.026720 25.777400
H 7.692730 4.019920 25.010000
H 6.867520 3.136320 25.282300
H 7.579200 4.913480 25.861200
H 8.309060 5.558990 25.511300
H 8.321480 4.786050 24.877000
H 9.045580 5.790280 24.821500
H 6.366050 6.826600 19.235000
H 6.825050 6.287510 19.990300
H 6.821650 6.285950 20.005700
H 6.383520 6.828590 19.240600
H 10.798000 9.019440 19.208500
H 10.769800 9.051090 19.202000
H 10.888400 9.041500 19.179000
H 10.968400 9.165770 20.419900
H 11.006000 9.153490 20.422800
H 11.393500 9.027860 20.041900
H 10.129700 9.275190 19.956600
H 10.190800 9.292080 19.901700
H 10.098600 9.307540 19.947300
H 9.950850 9.468220 20.893300
H 10.255100 9.539980 21.935000
H 9.931000 9.465730 20.954600
H 9.893530 9.488020 20.945900
H 11.429800 9.227590 21.762000
H 10.924700 9.241230 20.899000
H 10.209500 9.544160 21.930100
H 10.232800 9.522710 21.887900
H 11.068700 9.285880 21.412000
H 11.023900 9.284080 21.411300
H 11.015200 9.478070 22.635200
H 10.962000 9.460930 22.636300
H 10.961100 9.440950 22.619100
H 11.727200 8.787370 18.909600
H 11.756900 8.766990 18.910700
H 11.856600 8.783600 18.918600
H 12.714400 8.587060 19.148500
H 12.749300 8.585490 19.142900
H 12.836100 8.587510 19.190500
H 11.819500 8.899380 19.899900
H 11.782700 8.905680 19.901000
H 12.652500 8.763910 20.373600
H 12.695800 8.777680 20.366100
H 12.367300 8.800870 20.047700
H 13.564400 8.505750 19.921700
H 13.466800 8.503820 19.854700
H 13.509400 8.523570 19.843100
H 12.872500 8.787240 20.910600
H 11.898600 9.014230 20.904800
H 11.838200 9.023990 20.892400
H 11.882200 9.031780 20.889100
H 12.708000 8.882220 21.365000
H 12.758500 8.910070 21.355300
H 12.403700 9.000600 21.767800
H 11.944900 9.164170 21.878300
H 11.893700 9.142300 21.883900
H 13.833500 8.597830 20.823500
H 13.846300 8.560250 20.916400
H 13.782900 8.559970 20.839000
H 13.577800 8.740440 21.837600
H 13.606400 8.736380 21.907900
H 13.634700 8.788360 21.821500
H 11.940600 9.244860 22.891000
H 12.007600 9.296570 22.867500
H 11.949100 9.260610 22.875300
H 12.906600 8.996900 22.582900
H 12.908800 8.986970 22.630700
H 12.966400 9.044120 22.569600
H 16.317300 7.761650 27.815100
H 16.928600 7.699890 27.021100
H 16.283900 7.763870 27.782800
H 16.973000 7.690830 27.063400
H 15.535600 8.426420 27.750100
H 16.825100 8.298470 26.226700
H 16.048600 8.557550 26.860500
H 16.090600 8.541220 26.878800
H 15.565900 8.419470 27.762900
H 16.877300 8.277820 26.259500
H 15.742600 7.229260 29.338800
H 15.757300 7.245490 29.370700
H 16.387400 7.165280 28.577100
H 16.413000 7.174660 28.619000
H 16.422000 6.507820 29.663600
H 16.407200 6.484000 29.612100
H 15.443900 7.945200 28.675000
H 15.423600 7.940240 28.657200
H 17.447900 5.551200 18.570900
H 18.129600 5.932780 20.412000
H 17.754200 5.484640 19.557500
H 18.528700 5.776200 27.880700
H 18.015700 5.645070 28.770300
H 18.046700 5.666450 28.855900
H 17.239200 5.904150 29.404100
H 17.260000 5.929850 29.475100
H 18.571300 5.788200 27.971700
H 17.671100 7.214780 18.143500
H 17.729900 6.478380 18.817500
H 17.330200 7.023980 17.222900
H 17.292800 6.114640 17.716300
H 17.894200 8.878350 17.716100
H 17.953000 8.141960 18.390100
H 18.269500 9.326500 18.570500
H 17.550400 8.035570 17.222800
H 18.011900 7.405570 19.064000
H 18.070700 6.669180 19.738000
H 18.352700 7.596360 19.984600
H 18.293800 8.332750 19.310600
H 18.731000 8.696500 20.411700
H 18.575800 9.259940 19.557200
H 18.473400 6.775570 20.905200
H 18.693500 7.787160 20.905100
H 17.657100 7.718620 26.018700
H 17.715300 7.699850 26.071100
H 17.068600 7.103840 27.867300
H 17.032100 7.101310 27.815400
H 17.780400 6.438750 27.848000
H 18.693300 6.262470 27.059600
H 18.640700 6.262380 26.973600
H 17.820000 6.446020 27.919500
H 18.321700 6.973360 26.292000
H 18.380000 6.962180 26.363900
H 17.676900 7.037330 27.053700
H 17.724300 7.033010 27.115600
H 20.361400 9.032010 27.141900
H 20.390000 9.038960 27.164300
H 22.113400 9.673570 26.421800
H 21.399000 9.643470 27.434000
H 21.423600 9.651820 27.467300
H 21.213500 9.253130 26.574700
H 21.178200 9.246390 26.543200
H 22.149600 9.680970 26.463400
H 22.290700 10.129200 27.610200
H 22.268000 10.119800 27.567600
H 17.164300 6.516840 28.671200
H 17.135700 6.502730 28.609700
H 19.899700 9.095820 28.074400
H 19.874100 9.408500 29.061000
H 19.867700 9.398990 29.045000
H 19.881700 9.087870 28.057700
H 20.750700 9.564200 28.191200
H 20.766700 9.573170 28.217200
H 20.976900 9.971850 29.109900
H 20.971500 9.961280 29.082100
H 21.619800 10.040500 28.324800
H 21.843900 10.449200 29.252700
H 21.840500 10.437600 29.215700
H 21.633800 10.050500 28.360000
H 20.323200 9.882010 29.839300
H 20.320000 9.893200 29.859700
H 22.054000 10.847900 30.145400
H 21.117900 10.420000 30.256700
H 21.126100 10.407500 30.227900
H 22.061300 10.834700 30.106500
H 23.371800 10.682100 27.604700
H 23.393400 10.692500 27.659100
H 22.916300 10.199100 26.810300
H 22.947500 10.207800 26.860300
H 22.500800 10.527800 28.502800
H 22.488800 10.516900 28.458400
H 22.878200 11.049100 29.507700
H 23.367800 11.005200 28.645700
H 23.357800 10.993200 28.592000
H 22.877600 11.062100 29.555700
H 27.863300 12.190200 0.841541
H 27.869600 12.293800 0.781068
H 27.935700 12.066900 32.665000
H 26.119700 20.002400 20.622200
H 26.175500 19.988000 20.505900
H 27.778500 20.500500 20.622700
H 26.829600 20.479300 19.871400
H 26.741000 20.479200 19.945200
H 27.768300 20.871500 19.679900
H 27.669600 20.864200 19.697600
H 23.375300 19.978900 22.426600
H 23.616300 20.413800 21.518600
H 25.981500 19.529200 21.413500
H 25.972000 19.561600 21.547300
H 26.299400 19.226000 22.350900
H 27.360900 20.294400 20.698100
H 26.337600 19.275000 22.472500
H 27.003600 20.069600 21.085000
H 26.936800 19.819400 21.469100
H 27.112600 19.705900 22.010100
H 27.468100 19.634500 22.295900
H 27.887500 20.136800 21.547800
H 27.892200 20.109500 21.524800
H 24.101000 22.259100 20.918600
H 23.881800 21.248400 20.966600
H 23.662300 21.159700 22.183000
H 23.904700 22.082300 21.883000
H 23.223700 20.060300 23.447500
H 27.044100 19.159500 23.066900
H 27.118500 19.219200 23.149900
H 23.466000 20.982900 23.147500
H 23.512100 21.728800 23.812000
H 23.708400 21.905500 22.847500
H 23.201900 20.636100 24.307600
H 23.315800 21.552000 24.776500
H 24.214900 23.175000 21.387400
H 24.193100 23.750800 22.247500
H 25.983400 27.935200 20.774100
H 25.497300 27.651800 21.615400
H 25.556800 27.629400 21.709900
H 25.497100 27.653500 21.666300
H 25.513200 27.636700 21.646800
H 25.980600 27.941500 20.797400
H 26.015200 27.929000 20.831300
H 25.987900 27.948700 20.753500
H 26.396300 27.886600 22.435500
H 26.431700 27.869000 22.445800
H 26.463000 27.948800 21.986700
H 23.754400 22.651400 23.512000
H 23.800500 23.397300 24.176500
H 24.041400 23.832200 23.268400
H 23.950700 22.828200 22.547500
H 25.968900 27.580100 23.557700
H 25.500400 27.524200 22.693500
H 25.989600 27.588400 23.603600
H 25.530600 27.499400 22.672700
H 25.490400 27.516900 22.641800
H 25.584000 27.501000 22.736800
H 26.030900 27.560200 23.577100
H 26.089600 27.578100 23.636900
H 26.729400 27.923200 22.950200
H 26.833500 27.828800 24.152900
H 26.879900 27.802700 24.117500
H 26.651600 27.917200 22.930200
H 26.938100 27.840200 24.169000
H 26.804700 27.824400 24.117600
H 23.534900 22.562700 24.728500
H 27.793900 28.663500 20.360700
H 26.836400 28.319500 20.336500
H 26.830700 28.328000 20.286900
H 26.815100 28.315000 20.288500
H 26.821300 28.311200 20.319500
H 27.799800 28.688100 20.340800
H 27.785500 28.674300 20.320100
H 27.800500 28.696200 20.358100
H 27.559100 28.456400 21.269500
H 27.551000 28.472200 21.285000
H 27.332700 28.238500 22.218800
H 26.658100 28.086800 21.496400
H 27.302300 28.256300 22.229200
H 27.102900 28.293900 21.300000
H 26.645100 28.102500 21.491300
H 27.369300 28.268200 22.263500
H 27.313700 28.246100 22.256800
H 27.067500 28.278700 21.288200
H 26.405400 27.949800 21.961600
H 27.635700 28.242600 23.227000
H 27.559900 28.213600 23.225500
H 27.053500 28.040400 23.173400
H 27.106300 28.020600 23.168100
H 27.850400 28.161900 24.149100
H 27.806100 28.181000 24.194100
H 27.773900 28.184500 24.171500
H 27.902100 28.217000 24.190500
H 28.799800 13.095800 0.946455
H 28.780800 13.008200 0.999333
H 28.193900 12.633100 1.716900
H 28.190700 12.743100 1.656750
H 28.839100 13.277100 2.207710
H 29.496800 13.666400 1.232120
H 29.523700 13.743200 1.184850
H 29.625900 13.949500 2.182470
H 29.638600 14.037700 2.133540
H 28.838200 13.381400 2.151790
H 30.377500 14.536200 1.606880
H 30.343500 14.470100 1.647940
H 30.856800 14.743200 0.712941
H 30.799600 14.699600 0.747345
H 29.282200 14.348600 23.919300
H 29.284900 14.360500 23.918400
H 29.027600 15.359500 23.830800
H 29.007500 15.341400 23.816000
H 28.694700 16.240600 24.260400
H 28.653500 16.221500 24.230500
H 29.335900 13.039800 25.419400
H 29.339900 13.047900 25.437500
H 29.397800 13.511500 24.499900
H 29.403900 13.509100 24.512800
H 28.996700 14.634700 24.834000
H 28.886600 15.139600 24.796100
H 29.071700 14.215600 25.130600
H 29.025600 13.984400 25.593100
H 28.930700 13.995800 26.095900
H 28.745600 14.919800 25.761300
H 28.711200 14.920800 25.748600
H 28.375500 16.767800 25.092200
H 28.155400 16.799900 26.103300
H 28.082500 16.793700 26.059800
H 28.314900 16.753100 25.051800
H 28.560600 15.843800 25.426800
H 28.682300 15.571200 24.989600
H 28.396800 15.857300 25.904200
H 29.115800 13.071800 26.430500
H 29.107500 13.088600 26.445500
H 28.740100 14.270500 26.507700
H 28.604700 14.700000 26.726600
H 28.796600 13.599000 27.262300
H 28.769000 13.620200 27.266800
H 28.463700 14.480200 27.691900
H 28.414900 14.500300 27.681300
H 28.093500 16.328200 27.022800
H 28.018500 16.332500 26.984400
H 28.140200 15.493100 27.578000
H 28.206300 15.479100 27.604200
H 28.419600 15.624000 26.392000
H 28.425700 15.207000 26.663300
H 29.179200 12.859400 31.187600
H 29.109400 12.817100 31.229900
H 29.979600 13.515800 31.169300
H 29.896200 13.489500 31.204600
H 28.440300 12.361000 31.714200
H 28.391800 12.296400 31.764400
H 28.684900 12.801300 32.846500
H 28.651700 12.725100 32.897800
H 29.238500 13.100200 32.180200
H 29.294000 13.154000 32.136200
H 27.961000 12.154000 32.608200
H 29.408900 13.448600 33.084900
H 29.367600 13.383300 33.130600
H 30.018000 13.801300 32.374600
H 29.954500 13.758300 32.413000
H 30.627100 14.154100 31.664300
H 30.541400 14.133400 31.695400
H 30.872000 14.576300 32.570800
H 30.948200 14.603400 32.540000
H 30.083600 14.041400 33.363300
H 30.132900 14.095900 33.323300
H 28.740300 21.059500 19.982700
H 28.656500 21.054300 19.945700
H 29.437400 20.998600 20.623100
H 28.423500 19.924600 22.351600
H 28.771400 20.204000 22.010500
H 28.847500 20.399600 21.580500
H 28.316200 20.584500 20.753800
H 28.662500 20.567700 21.085400
H 27.996500 19.773100 22.472900
H 29.655300 20.271100 22.473300
H 29.485000 20.993000 20.698800
H 29.802900 20.689800 21.636200
H 29.803000 20.711900 21.548300
H 28.954800 19.739700 23.178300
H 29.034000 19.794400 23.150300
H 28.016000 19.347500 23.369800
H 28.105400 19.409400 23.398000
H 29.608800 20.231000 22.543800
H 29.154500 29.035500 21.790300
H 29.127000 28.968000 21.820200
H 28.009100 28.613300 21.576800
H 28.648900 28.958300 20.890200
H 28.634600 28.916700 20.860500
H 28.635600 28.932500 20.900700
H 28.637800 28.903900 20.910000
H 27.975800 28.575000 21.583400
H 29.114200 28.995600 21.816600
H 28.208200 28.626000 22.022900
H 29.134900 28.977500 21.764900
H 28.233800 28.608000 21.991800
H 29.152300 28.840200 22.790800
H 28.222000 28.542400 22.552100
H 27.959400 28.410000 22.967100
H 28.275500 28.587700 22.540300
H 29.181800 28.907100 22.817200
H 29.130300 28.838800 22.847300
H 29.107200 28.860700 22.843000
H 28.007400 28.390100 22.941200
H 28.616600 28.563800 23.704900
H 28.646800 28.550700 23.716300
H 28.682100 28.541700 23.663500
H 28.723400 28.607500 23.695700
H 3.199950 25.492400 26.034100
H 3.183280 25.515100 26.046600
H 2.417040 26.124600 25.791000
H 2.054980 27.079900 25.623300
H 2.032020 27.087900 25.598500
H 2.398730 26.138000 25.785200
H 3.958140 27.358800 26.063900
H 3.987660 27.330400 26.072600
H 3.593800 26.411400 26.053400
H 3.570710 26.437000 26.055300
H 2.995080 27.223400 25.831200
H 3.021320 27.205100 25.848000
H 4.175460 25.386300 26.312600
H 4.193920 25.352700 26.287600
H 5.109410 25.786000 26.512000
H 5.132620 25.742900 26.483500
H 4.921200 27.494300 26.296600
H 5.884260 27.629700 26.529300
H 5.920330 27.580800 26.522000
H 5.764530 26.558400 26.569300
H 4.533770 26.572400 26.288000
H 4.560140 26.536600 26.278100
H 4.953990 27.455600 26.297300
H 5.734870 26.607200 26.591300
H 2.181410 28.110500 25.536500
H 2.210780 28.102300 25.576000
H 2.806880 28.931600 25.615800
H 2.842690 28.917800 25.661800
H 3.382510 28.145200 25.839900
H 3.415170 28.124100 25.867200
H 3.781400 29.308000 25.857700
H 3.740820 29.331300 25.815200
H 4.381510 28.249300 26.091900
H 4.345570 28.280700 26.072600
H 4.775370 29.168300 26.111200
H 4.733000 29.202500 26.081200
H 5.517550 28.579700 26.342600
H 5.558270 28.536100 26.354300
H 26.056200 3.251910 27.528100
H 26.101800 3.321270 27.534300
H 25.189700 3.038140 27.933700
H 26.916100 3.960560 27.523200
H 26.885500 3.869350 27.475300
H 27.415200 4.690470 27.817300
H 27.414100 4.784730 27.903200
H 24.009800 3.728100 29.393800
H 24.031200 3.763770 29.435300
H 24.423900 3.187060 28.614400
H 24.408300 3.190960 28.659700
H 25.458400 3.816560 28.455300
H 25.462900 3.844330 28.458500
H 25.149500 3.003600 27.961600
H 24.873000 4.189310 29.188500
H 24.899300 4.196640 29.192100
H 25.767300 4.629520 28.948900
H 25.736200 4.650520 28.983200
H 26.009500 5.456700 29.508000
H 26.076200 5.442470 29.442500
H 25.208200 5.009600 29.685700
H 25.146300 4.995500 29.713300
H 26.326100 4.305540 28.253200
H 26.326400 4.249430 28.212100
H 26.635300 5.062390 28.705700
H 26.599400 5.111730 28.777900
H 27.503300 5.495260 28.462500
H 27.462600 5.572930 28.572600
H 24.058300 4.516310 30.063300
H 24.119400 4.568560 30.080500
H 25.370600 5.979770 30.432100
H 24.556400 5.340480 30.443300
H 24.649000 5.389690 30.422500
H 25.478300 6.007120 30.369700
H 27.126300 6.068080 29.238100
H 27.048500 6.113980 29.352100
H 26.385100 6.255430 29.936100
H 26.282800 6.262890 30.032700
H 2.034320 16.733900 6.811020
H 1.996790 16.699500 6.864490
H 2.011120 16.677900 6.778790
H 3.019270 16.552900 6.795110
H 3.057630 16.588700 6.751820
H 3.036350 16.556000 6.702540
H 3.984930 16.849700 7.021360
H 3.995930 16.864400 6.939010
H 4.020130 16.878500 6.999580
H 0.597842 15.815500 21.713300
H 0.837769 16.739500 21.331600
H 0.837050 16.710900 21.337800
H 0.613065 15.845200 21.718500
H 1.618310 15.904900 21.863000
H 1.637480 15.938000 21.835600
H 2.493540 16.450200 21.771400
H 2.507830 16.485300 21.714000
H 2.396940 16.724700 28.712000
H 2.843830 16.618800 29.679700
H 2.819940 16.561300 29.642700
H 2.408940 16.774500 28.753200
H 3.501310 16.824200 30.376500