9000
Atoms. Timestep: 0
O 1.646710 1.029270 1.105220
O 1.238050 1.793020 0.704553
O 0.722231 0.823154 1.342890
O 1.266250 2.538420 1.386930
O 0.814618 4.190800 1.040890
O 0.618393 3.200740 1.429520
O 0.608624 4.935990 33.259300
O 3.350340 31.340700 1.274100
O 1.081340 32.888000 1.876310
O 1.954160 32.485900 1.109040
O 1.467080 31.961100 1.819670
O 2.485150 31.715100 1.293590
O 4.198890 31.023900 32.085900
O 4.016280 31.229700 33.406000
O 4.899230 31.559900 33.405000
O 4.912880 30.913500 32.726300
O 32.997000 3.599380 0.685676
O 29.824000 3.864510 30.651400
O 30.202500 3.487320 31.537600
O 30.839800 3.919540 30.158700
O 30.049100 3.380410 29.877000
O 31.537000 3.756270 31.093900
O 31.188100 4.568300 30.832600
O 28.157300 1.592490 32.535500
O 28.773500 2.340460 32.629400
O 28.567800 3.208780 32.264100
O 29.480000 3.043400 32.080300
O 32.548200 4.850450 32.829800
O 32.787200 4.787420 31.853800
O 31.928500 4.396160 31.708200
N 1.149020 5.950100 1.609780
N 2.019500 0.718235 5.802270
N 3.590540 1.196860 4.717130
N 2.873310 1.263670 5.665990
N 4.352690 0.950374 4.234530
N 0.894060 0.902977 6.379990
N 1.854200 5.300780 8.643340
N 1.551710 4.568420 9.282570
N 1.191820 5.673340 9.194110
N 0.873890 3.786950 9.735410
N 1.286100 3.860580 10.598500
N 1.878210 4.474970 10.195900
N 2.062150 7.074630 0.734183
N 1.205410 6.782050 0.947279
N 0.846952 30.769300 5.784810
N 1.511670 31.349300 5.393310
N 0.733411 31.744900 4.520270
N 1.704870 31.877800 4.596220
N 2.979520 33.216600 5.365530
N 3.351180 33.181500 4.469240
N 1.719840 33.208200 6.657820
N 16.788200 21.674900 6.794340
N 15.782200 21.720500 6.615020
N 16.134900 24.052200 5.831650
N 16.752100 23.434300 6.351170
N 16.893500 22.492600 6.407340
N 14.941500 25.851700 7.466340
N 14.941700 25.746400 6.516730
N 16.250900 25.769100 6.423950
N 16.433800 24.919200 6.112550
N 16.959500 26.246700 7.382830
N 15.609300 26.457800 6.285860
N 14.364600 25.843700 8.228360
N 14.708200 26.021600 9.061740
N 15.532900 25.907600 8.507810
N 16.339700 25.970800 8.936910
N 16.653400 25.495300 7.905900
N 16.606900 26.629400 8.186100
N 19.103900 2.348050 2.397460
N 19.249300 2.560500 1.482170
N 18.211800 3.383600 3.263390
N 18.958500 3.230950 2.670380
N 21.859500 3.239620 4.085060
N 21.821300 4.136400 4.016550
N 18.053100 1.497340 4.795310
N 18.818100 0.935384 5.142170
N 18.880800 1.628230 5.791820
N 19.407900 2.052870 5.115160
N 18.463200 2.435010 4.703770
N 18.158600 3.227990 4.245480
N 19.543200 2.973270 4.968760
N 20.347800 3.135190 4.452310
N 19.993400 2.556510 5.784850
N 21.582400 3.530420 5.684450
N 20.876400 3.866750 4.447870
N 22.350000 3.975820 5.139160
N 19.053400 5.578950 5.279000
N 20.857100 4.789820 4.761840
N 21.136900 4.377800 5.630000
N 21.966700 4.863040 5.182630
N 18.303800 0.695307 7.463710
N 18.668100 0.601345 6.606970
N 20.045800 1.568790 6.990390
N 20.616900 2.349330 7.117420
N 20.415600 1.730970 6.078750
N 19.631700 0.667491 7.161940
N 21.129400 1.360680 7.131420
N 21.458500 1.575070 6.274250
N 21.695200 2.296530 6.822200
N 21.354400 2.090820 7.776040
N 20.494100 3.031640 6.423630
N 20.382500 3.266580 7.354300
N 20.361500 4.194150 7.266630
N 20.343300 3.919350 6.196150
N 22.130800 4.061940 6.198060
N 21.527300 3.267320 6.850870
N 21.199000 4.180950 7.749690
N 22.460800 3.281490 6.665570
N 19.054500 5.269140 6.187580
N 19.963000 4.781580 6.109020
N 19.342000 1.311380 8.156720
N 19.812400 2.146770 8.034070
N 20.305800 1.281420 8.082220
N 21.828300 2.177070 8.592350
N 20.482300 2.780150 8.314830
N 21.298700 2.936250 8.859330
N 21.305300 3.174980 8.009570
N 21.656700 4.224470 8.624680
N 21.455500 3.784790 9.472260
N 19.458000 3.304410 11.339000
N 20.337400 2.900710 11.159400
N 18.591300 4.943980 10.483900
N 19.102000 4.767400 11.283500
N 21.418700 4.424360 10.202900
N 21.085700 4.231690 11.163600
N 19.308200 3.701770 12.205100
N 19.480200 4.012280 13.114300
N 20.313200 3.824340 11.543300
N 19.576700 4.751530 12.126200
N 18.988800 4.855380 12.774900
N 19.488100 4.787010 13.655800
N 19.117300 6.337660 5.997000
N 18.212000 6.761070 6.686100
N 18.834700 7.465260 6.914210
N 19.241300 7.263180 6.076480
N 21.010500 27.658800 1.463630
N 21.210700 26.930800 0.869269
N 19.217000 25.829700 4.218690
N 20.267000 26.954200 3.975180
N 19.646900 26.414700 3.556550
N 19.523400 27.564200 4.021760
N 20.983900 27.575000 2.545770
N 17.943200 25.173300 5.409200
N 18.351200 25.589400 4.596390
N 20.566600 24.923500 5.418280
N 20.220400 25.604700 4.799170
N 21.182900 25.402400 4.701900
N 21.248500 27.879900 4.724760
N 21.966300 26.597700 5.690630
N 21.812700 27.463200 5.361420
N 17.174100 25.315400 7.154820
N 17.427000 25.265100 6.189910
N 19.888400 25.218800 6.118520
N 19.518500 25.915000 6.648380
N 19.972400 25.990500 7.670170
N 19.573400 26.716600 7.156070
N 20.726300 26.361500 7.218210
N 21.375400 26.496700 6.420990
N 17.276000 26.091500 8.759170
N 20.646700 27.433000 33.110300
N 20.662300 28.456100 2.109700
N 21.539800 28.771100 2.194870
N 21.186500 28.620900 1.299420
N 19.624300 29.348800 3.531100
N 20.418600 29.685800 4.003460
N 19.209800 28.463900 3.776500
N 21.046700 28.173400 3.280240
N 21.329200 29.065000 3.381520
N 20.007000 32.563200 4.022360
N 19.053400 32.696900 3.981550
N 22.157700 32.374300 4.152550
N 21.279100 32.559800 3.965280
N 20.170600 28.986200 4.547110
N 21.520000 28.941200 4.261910
N 21.411400 28.658100 5.192980
N 18.395700 29.863800 5.429740
N 17.827500 30.389800 4.881560
N 18.637000 31.091900 4.384600
N 18.207500 31.135800 5.372070
N 19.829800 30.087900 5.249740
N 19.370300 29.817800 6.014690
N 19.071000 30.772700 5.160810
N 20.022300 31.182300 5.074270
N 20.556100 30.567000 4.628330
N 20.653800 30.449600 5.608530
N 22.226700 31.127000 5.424830
N 21.484200 30.915400 5.974380
N 18.031800 31.930300 6.044020
N 20.244400 31.691600 4.239220
N 18.880300 31.994700 5.548030
N 19.938700 32.220600 5.070240
N 19.286700 31.792500 4.544980
N 19.164900 32.852600 5.262050
N 19.464700 33.375700 4.574500
N 20.868900 32.401500 4.838650
N 18.618100 30.022700 6.997720
N 18.006400 29.902200 6.312910
N 17.737800 30.528900 7.232420
N 18.613500 30.852700 7.505370
N 20.123600 30.150700 6.460710
N 19.591000 31.572200 7.076430
N 20.375300 30.993900 7.431100
N 21.037000 30.408200 6.658460
N 21.596400 30.755800 7.489630
N 22.172400 31.152700 6.836730
N 17.573800 31.790000 6.923140
N 17.651800 32.328300 7.704170
N 18.620000 31.673300 6.704640
N 18.392900 32.610100 7.184490
N 20.507500 33.371700 7.487430
N 19.212900 32.664500 6.425130
N 20.237800 32.893500 6.633380
N 19.785100 31.920100 6.160720
N 18.898500 31.898100 7.844570
N 21.161500 32.798900 6.811760
N 21.501800 33.347600 7.531820
N 18.359300 29.974400 7.903490
N 18.029100 30.548100 8.587330
N 17.926000 31.296900 7.980020
N 19.804000 31.450200 8.087990
N 18.976000 31.079800 8.370730
N 21.913300 30.355800 8.310500
N 21.221700 30.826100 8.798050
N 20.904500 31.514700 8.132520
N 20.461900 32.252000 8.553610
N 20.768500 33.118600 8.382260
N 22.225200 33.396300 8.137990
N 21.741500 28.406800 32.781600
N 20.893200 28.366800 33.178400
N 23.144200 1.445380 3.670150
N 23.058500 0.823627 3.017820
N 23.148000 2.342010 4.013570
N 27.072200 1.780040 3.778340
N 22.612300 2.979360 3.611320
N 24.012400 1.824990 4.343200
N 24.944600 1.633580 5.694880
N 25.482500 0.806625 5.156030
N 27.639700 2.376350 4.298290
N 26.582900 1.009720 5.198050
N 26.236200 1.039120 4.287430
N 26.193200 2.005180 4.250980
N 24.113400 2.786760 4.235460
N 23.495700 3.329190 4.676650
N 22.899200 3.433860 5.710130
N 22.784200 3.820600 4.273360
N 27.810700 2.440350 5.431830
N 22.835600 5.172720 5.362370
N 23.581200 5.218820 5.978070
N 24.066000 5.022890 5.179190
N 23.420800 4.226700 5.660840
N 24.400300 5.928020 5.289950
N 25.106700 4.418080 5.420630
N 25.167000 5.390870 5.266670
N 24.751000 1.126670 6.528790
N 24.452200 1.075410 7.411290
N 25.286100 0.592964 7.730240
N 25.698700 1.052660 6.128480
N 24.138000 3.963610 7.199090
N 24.118400 4.152030 6.285070
N 24.795100 3.125970 6.473820
N 25.264800 3.856850 6.148930
N 24.178000 3.325170 7.893320
N 23.782400 3.678450 8.694830
N 24.683500 3.673720 9.072460
N 24.391500 3.216120 10.986800
N 24.656100 3.385930 10.034600
N 23.144000 3.571040 12.292300
N 23.897300 3.105800 11.831700
N 23.133700 5.573970 12.893100
N 22.520400 4.869700 13.184700
N 22.725800 4.383310 12.331300
N 23.238200 5.359270 13.847900
N 23.104600 5.735650 14.727800
N 23.236500 6.603190 15.154500
N 23.482300 7.125590 16.789800
N 23.658800 7.104020 15.840700
N 22.925900 6.521070 16.222600
N 23.510100 32.981600 3.814400
N 22.553700 33.247500 3.696700
N 22.903600 32.223800 3.600280
N 23.155800 31.111100 5.105250
N 24.558300 31.106800 5.336070
N 25.675900 32.539000 4.569210
N 25.149200 31.753500 4.878850
N 25.095100 33.170800 5.940640
N 27.243900 33.157500 4.994060
N 27.186300 32.040100 5.393830
N 27.493000 32.179000 4.454560
N 26.357000 31.923600 4.872730
N 26.756100 32.717400 4.270510
N 26.143700 33.002800 5.363540
N 23.753500 29.945500 7.546570
N 23.912200 30.845900 6.969000
N 23.205100 30.133600 6.782870
N 23.192800 31.464100 7.034790
N 22.854100 30.843200 6.226480
N 24.557700 30.082300 7.093440
N 24.551900 30.893400 6.287240
N 23.015300 32.898400 7.823790
N 23.267500 32.449200 7.033010
N 23.979100 33.272500 6.898500
N 24.903800 32.990200 6.987510
N 24.332200 32.204300 8.825800
N 24.985000 32.772700 8.422450
N 23.314500 28.691800 30.965300
N 24.134800 29.130300 31.169000
N 24.832300 29.728300 31.233800
N 23.194200 28.027200 31.666000
N 22.596900 28.453500 32.307000
N 30.304000 3.488560 1.175150
N 30.170900 4.029380 1.961400
N 32.666500 3.869130 1.778210
N 31.406100 4.568170 1.473910
N 30.831900 4.722670 2.218350
N 30.873500 5.539640 0.816438
N 33.020800 4.528340 2.355130
N 33.333400 5.299540 1.564570
N 31.918200 4.319580 2.256820
N 32.138100 5.805440 0.605325
N 28.248400 1.230960 2.912240
N 28.177900 1.807350 3.673210
N 29.752800 2.028260 2.935100
N 29.270100 1.284390 3.359250
N 30.014500 0.744209 3.611040
N 28.687600 3.597970 4.008950
N 29.484300 2.777140 3.585160
N 28.537300 2.666990 3.526930
N 30.852700 3.004890 4.099780
N 31.000700 3.864270 3.764450
N 29.229800 5.274380 3.428980
N 29.133800 4.449970 4.000440
N 30.199100 5.901340 3.943180
N 33.187200 5.559690 2.490540
N 28.765300 2.133370 5.260400
N 28.708000 1.183940 5.069790
N 28.723500 0.769950 4.244940
N 32.476400 1.256260 5.255800
N 32.773700 2.115970 4.843970
N 32.963100 1.342410 6.028540
N 28.176100 3.269220 5.711570
N 28.354300 2.936260 4.588180
N 29.407100 4.041140 4.904100
N 28.668600 4.142390 5.515350
N 29.913600 3.518100 5.526060
N 30.625200 3.018100 5.922500
N 30.830600 2.672560 5.041190
N 33.058500 3.737570 5.324320
N 33.123500 2.778400 5.518270
N 28.604000 5.427720 5.762320
N 28.943900 5.494320 4.290000
N 29.478000 5.680020 5.321480
N 28.499300 4.888910 4.880870
N 31.374000 5.776170 5.682370
N 30.526400 5.734260 4.903770
N 30.594100 5.253990 6.019470
N 33.041300 5.356110 5.230670
N 32.107700 5.245590 5.983240
N 33.361700 4.573750 4.857010
N 33.393500 5.786670 5.920700
N 29.296000 5.054470 6.313470
N 29.359600 5.755170 7.022060
N 30.916000 5.275730 7.492840
N 30.060700 5.160560 7.066260
N 32.638100 5.073730 6.784470
N 33.292800 4.837250 6.124220
N 31.886800 5.230390 7.573770
N 33.264000 4.617480 9.521280
N 32.824300 5.430760 9.208290
N 32.500000 5.300210 8.333190
N 30.138000 3.390860 33.085300
N 30.873400 3.946980 33.318700
N 31.561000 4.989030 33.310000
N 30.077700 5.482440 33.064300
N 30.549600 4.650970 32.770800
N 31.430200 6.401610 0.701080
N 31.545100 7.728410 0.882395
N 30.711800 7.297510 0.699933
N 32.848600 7.133520 0.794968
N 32.125000 6.925320 1.433590
N 32.399400 7.234990 2.360360
N 31.232200 8.069990 1.772140
N 31.815200 7.938520 2.482440
N 28.684400 6.188650 5.196330
N 29.649000 6.263580 4.597950
N 30.242800 6.424310 5.451470
N 30.412700 7.232800 4.564720
N 30.915700 6.480340 4.443530
N 31.297400 7.510230 4.262960
N 32.198200 7.533240 4.423950
N 32.368000 6.159850 5.511920
N 31.954600 6.866910 5.014010
N 30.277700 6.055350 6.367870
N 32.794100 6.307220 8.527210
N 32.216200 6.900800 8.964380
N 33.389000 6.424360 9.256750
N 31.577100 6.238410 11.281900
N 32.122700 6.735600 10.640600
N 32.565200 7.091740 9.833770
N 31.320900 6.376180 12.198900
N 32.103500 7.071340 12.030300
N 31.682700 7.485000 12.878000
N 32.418700 6.848990 12.907500
N 32.263500 6.108380 12.227200
N 30.439300 6.482860 33.078600
N 31.032100 7.032060 32.474300
N 32.020100 7.021750 33.094300
N 31.553100 30.764700 3.769090
N 30.761600 31.131700 3.408130
N 33.096500 31.471200 3.706920
N 28.692700 33.251200 2.921550
N 29.355700 32.577900 2.738070
N 29.278600 33.001900 3.708050
N 31.566100 32.698800 3.727870
N 30.991600 32.919600 3.015090
N 30.221000 32.998900 2.479070
N 31.307100 31.917200 3.164090
N 32.271800 31.886500 3.397300
N 31.067300 31.432000 4.306890
N 32.005100 31.360200 4.463830
N 31.752300 32.318100 4.587940
C 2.921270 5.923650 2.036350
C 3.327360 5.349160 1.383450
C 4.416700 4.933830 0.892196
C 5.748060 5.697850 2.282180
C 2.361860 5.610320 2.776810
C 2.818120 4.968630 3.480380
C 3.555720 4.500450 3.819760
C 3.488750 5.571320 2.770750
C 3.884490 5.337460 3.577250
C 3.770860 5.587250 7.168130
C 5.979000 5.830710 6.636600
C 1.122730 6.012560 8.221150
C 3.708670 5.816820 8.072160
C 4.104400 6.037570 8.950200
C 4.578190 5.402690 27.446900
C 6.023030 4.917530 28.286900
C 4.541030 5.567170 28.391900
C 5.481380 5.731680 28.438900
C 5.649700 4.868240 31.060600
C 5.189390 5.692490 30.618100
C 3.551180 5.135220 33.326700
C 4.584610 5.550030 33.001900
C 2.104790 6.731950 1.900540
C 2.960100 7.033350 2.211340
C 6.023310 6.333400 1.630090
C 2.146880 6.796990 3.740760
C 1.927170 6.561040 2.786730
C 0.771394 6.525100 3.705540
C 3.712860 6.806380 2.777170
C 2.827440 6.232420 3.308960
C 5.656460 6.179330 3.057500
C 5.572720 7.325110 3.310400
C 4.257260 7.547490 2.995630
C 5.997320 6.920970 2.536980
C 3.089500 8.736530 3.300100
C 3.897310 8.374180 2.913630
C 2.491110 8.529870 4.015550
C 3.984000 9.430580 3.521820
C 4.955060 8.851920 3.529550
C 4.781720 9.680050 3.031800
C 5.405920 8.015200 3.957240
C 5.023220 11.143300 3.490220
C 5.536550 10.371800 3.142740
C 5.297460 9.870030 3.922960
C 1.147640 7.067960 4.376310
C 1.716230 7.049620 5.192200
C 2.120830 8.542790 4.891830
C 1.403140 7.960330 4.965510
C 5.155930 8.754450 4.480700
C 4.479680 9.478170 4.347260
C 5.462000 10.861600 4.359320
C 1.298720 6.146040 7.299090
C 1.007310 6.809080 6.663500
C 0.752322 6.965480 7.691740
C 2.891150 7.021560 7.729670
C 3.594610 6.471750 7.031030
C 4.274320 6.230950 6.341610
C 5.179010 6.321640 6.357060
C 2.061170 6.441230 8.293090
C 1.248810 6.882690 8.605590
C 2.478590 7.278300 8.573350
C 3.589290 6.914100 8.394630
C 4.533160 6.876220 8.282360
C 5.454870 7.080540 8.294950
C 3.850470 6.302300 27.418500
C 4.789370 6.315770 27.508400
C 3.944700 6.462170 28.410200
C 4.927600 7.322970 29.400500
C 4.662160 6.416510 28.992600
C 5.151170 7.079070 28.455400
C 5.555090 6.775330 29.826100
C 4.603440 6.099510 30.018700
C 5.003940 6.698880 30.636000
C 5.407930 6.389470 31.533700
C 5.605010 7.228430 31.152000
C 5.963960 6.642610 32.481300
C 0.821169 11.976800 7.175520
C 7.039010 5.902080 1.037560
C 6.744420 6.040260 7.207520
C 8.236900 4.151550 26.050400
C 8.227280 3.542690 27.699200
C 8.358700 3.480980 26.769200
C 7.845020 5.996960 26.554000
C 7.513170 4.355500 27.919100
C 7.573820 5.248320 27.608900
C 7.066740 5.520470 26.863400
C 8.925190 4.861820 26.135500
C 8.295910 5.212240 26.721600
C 9.151550 3.653370 28.049300
C 6.945520 4.953470 28.468000
C 7.772970 5.784630 33.373400
C 6.843940 6.766670 1.540530
C 7.849400 6.530760 1.179610
C 6.583720 7.717660 0.595657
C 6.261630 10.806300 4.893040
C 6.517920 11.285300 6.023870
C 6.205980 6.594370 8.639080
C 6.913050 6.305810 8.103800
C 6.071270 6.281550 30.845600
C 6.456420 6.577900 30.032500
C 6.463810 6.836820 31.661300
C 6.182270 7.655890 32.103100
C 6.304670 6.823770 33.368400
C 7.057370 7.434610 32.493200
C 7.251400 7.061990 33.423100
C 7.103860 8.423910 32.698700
C 6.685490 11.602500 5.150550
C 32.640500 4.077580 4.201060
C 32.259300 5.821610 3.256230
C 32.062000 4.844960 4.119670
C 32.731500 5.559660 4.067630
C 32.765800 6.621790 3.310420
C 32.641700 7.029850 7.542450
C 31.772000 7.457930 7.305880
C 31.228500 9.191120 7.175260
C 32.062600 9.037300 6.557680
C 32.384800 9.692270 7.194320
C 31.699500 8.458530 7.518600
C 32.712300 10.380200 7.761800
C 33.351500 11.067500 7.269890
O 5.847510 3.501700 4.427380
O 5.944120 4.427620 4.496820
O 9.689040 3.583860 2.034730
O 9.148730 4.352920 1.731340
O 8.187840 4.335100 1.770130
O 7.866500 4.029680 2.588720
O 7.170660 3.153350 3.349960
O 7.822410 3.055270 2.669000
O 6.306320 3.512700 3.563240
O 9.426160 3.217190 3.112820
O 8.798820 3.595550 2.449850
O 9.090870 3.878830 3.759140
O 10.049500 4.050430 3.718500
O 6.962120 2.318900 5.428430
O 6.809590 4.036850 4.778210
O 6.663090 3.179690 5.138790
O 7.382560 2.808770 6.046240
O 7.948260 2.723000 5.232600
O 8.620820 2.791880 5.862040
O 11.259800 4.365120 5.336280
O 11.021900 5.243010 5.762800
O 9.190460 2.032760 6.141120
O 9.946360 2.155200 6.807280
O 10.562800 3.658900 6.782460
O 10.621800 2.741880 6.537970
O 11.237100 4.271010 7.183470
O 12.028100 4.975960 5.352420
O 12.400500 4.351970 6.035040
O 11.540400 4.056820 6.264320
O 11.542400 5.124490 6.520440
O 4.098270 4.334480 5.548060
O 5.665590 5.354600 5.812320
O 4.958510 4.272350 5.940520
O 5.224470 4.807690 5.214880
O 5.709730 2.247840 7.594340
O 5.969070 3.913760 6.586700
O 5.891090 1.961570 8.507980
O 7.839190 3.879880 5.454910
O 7.062970 3.983460 6.035930
O 6.192260 4.248110 5.700850
O 6.385410 5.372640 5.191680
O 7.166190 4.987890 5.661720
O 7.560480 4.703750 4.884300
O 6.533320 1.480160 7.337780
O 11.004900 2.325150 7.391080
O 6.767620 3.502310 7.271620
O 6.129710 2.918910 6.623090
O 6.732160 2.411250 7.153830
O 6.069850 3.069120 7.869000
O 7.001060 1.864990 8.065790
O 6.989280 2.145530 8.959720
O 9.454200 1.996120 7.951050
O 10.374000 1.733830 7.889450
O 7.306990 3.136410 8.069410
O 6.163780 2.541070 9.178710
O 9.012580 2.493130 8.920400
O 8.019130 2.522480 8.338760
O 8.836360 2.913140 8.086910
O 9.549830 3.299720 8.895150
O 10.009000 2.675450 8.309120
O 2.854690 0.715824 10.872100
O 3.919230 1.909210 10.094400
O 3.364260 1.433650 11.303500
O 3.259680 1.180680 10.087700
O 2.560150 1.869130 12.490900
O 2.687410 1.267090 13.257800
O 2.558010 1.148910 11.873100
O 3.458570 1.155150 12.522900
O 5.989480 2.020840 13.055800
O 3.893900 1.277890 13.401500
O 5.182510 1.842070 13.875600
O 4.840430 1.056300 13.510300
O 6.014980 1.114660 13.462900
O 5.678850 2.649580 14.020200
O 5.813310 1.610530 16.219500
O 5.583950 2.344260 17.387400
O 3.673160 33.037200 10.758000
O 3.327750 33.122900 9.869240
O 3.682800 32.945600 12.521800
O 2.778890 33.158100 12.656500
O 3.522860 33.418000 11.743000
O 3.116440 33.297200 13.558700
O 6.170680 1.529520 14.237700
O 6.513300 2.313460 13.801000
O 6.492420 2.255450 14.821700
O 6.355860 1.430270 15.241000
O 6.450410 2.181790 15.815100
O 7.008550 2.160950 18.543600
O 6.336110 1.830430 17.018200
O 6.444070 2.541730 17.817400
S 1.648090 5.390020 10.859800
S 2.514300 5.277280 11.247400
S 3.373150 2.782460 13.026500
S 3.950850 5.770390 12.088400
S 3.205110 5.328350 12.472300
S 2.464160 4.865340 12.075100
S 3.676500 4.519090 12.884300
S 4.046230 5.417880 13.299500
S 4.750150 4.433860 12.908600
S 4.241970 4.644370 12.150700
S 4.895730 5.292180 12.593200
S 5.591130 5.487200 13.197300
S 4.118080 2.352630 13.424200
S 3.559760 2.192290 14.161900
S 3.297270 3.650150 13.404500
S 3.774750 3.415180 14.269200
S 3.718540 2.554800 15.036700
S 4.172280 4.244140 13.913300
S 2.514080 4.859160 15.004100
S 3.405460 4.796230 14.123800
S 3.493650 5.687830 14.461300
S 5.118450 4.910950 13.847100
S 4.413990 5.379760 14.301200
S 1.925080 0.668621 16.128600
S 2.604600 1.329680 16.085300
S 3.724180 1.764090 15.597200
S 2.822010 1.798630 15.251000
S 2.508320 1.873910 16.908200
S 2.297370 2.747120 16.661700
S 2.581100 5.751430 15.289900
S 1.648630 1.319490 17.092300
S 1.730330 1.527000 17.956200
S 2.686860 1.553560 17.807300
S 2.352660 2.798670 17.658000
S 1.690350 9.260870 8.379260
S 0.888143 9.647560 8.202100
S 0.629348 9.283780 9.059730
S 0.651612 8.370900 8.699940
S 2.200470 6.147240 10.593700
S 1.818340 7.063160 10.482700
S 1.041220 7.398580 9.989780
S 1.073350 8.488060 11.103200
S 1.512250 8.219440 10.158200
S 1.862080 8.929340 10.786000
S 1.798980 7.918810 11.092200
S 1.150720 7.621390 13.027300
S 2.005320 7.198250 12.263800
S 1.132180 6.772970 12.592800
S 1.673790 8.032230 12.050600
S 0.914037 9.608840 11.965300
S 0.975727 8.600100 12.960000
S 3.112550 8.742150 13.203200
S 4.763080 9.977920 13.344800
S 0.735775 7.177990 14.052200
S 1.592620 6.689790 14.109700
S 1.848030 6.360680 14.972600
S 1.768870 7.939130 14.250200
S 0.881897 8.313140 14.295200
S 2.512530 8.461250 13.946200
S 3.413440 8.999720 14.177600
S 3.987740 8.426680 13.492200
S 3.574840 8.082280 14.494300
S 4.120230 9.660520 14.271500
S 3.386370 8.758990 15.149200
S 4.866440 8.086120 13.769400
S 5.266220 8.099940 14.686100
S 4.441690 8.821730 14.420600
S 5.891730 8.461540 13.709100
S 4.800510 9.033920 13.524000
S 5.476460 8.971970 14.389100
S 5.524060 10.551200 13.488400
S 1.866990 7.548680 16.875600
S 0.790619 7.185530 15.947300
S 1.067390 6.998400 16.848100
S 2.764540 7.666170 16.546800
S 1.091910 9.072760 16.109100
S 1.076660 8.094850 16.341800
S 3.235940 8.229740 15.957900
S 5.301360 9.460970 15.339000
S 1.074710 9.922380 16.499200
S 1.151730 32.933500 16.034900
S 1.092350 33.346100 16.896400
S 1.791720 33.349300 17.548000
S 6.799170 5.770740 14.373200
S 6.562340 5.996240 13.514500
S 9.108850 8.970130 7.783220
S 9.863860 7.667580 8.835770
S 7.293370 9.100050 9.425150
S 6.472830 8.588530 9.331930
S 8.714060 9.398140 9.670020
S 8.539670 8.277980 8.110280
S 8.989240 8.381610 8.961520
S 8.251560 8.990560 8.915600
S 9.709100 8.429250 8.257540
S 10.580200 8.141070 9.194070
S 7.023470 9.258910 11.191200
S 6.897860 8.069660 11.279900
S 7.629430 8.309060 10.746800
S 6.844030 9.535780 10.285400
S 6.719230 8.575990 10.238500
S 8.453490 8.838180 10.773300
S 8.387910 8.328550 9.942840
S 9.286370 8.739910 10.008900
S 10.105000 8.031240 9.996720
S 6.160960 10.021000 10.861600
S 6.988180 10.471200 11.177800
S 7.699570 9.927250 11.524000
S 6.438520 6.740780 12.272900
S 6.928890 7.134800 11.560300
S 7.087670 6.383560 12.849800
S 7.379210 9.363740 13.047200
S 6.466490 9.792790 11.739600
S 7.264650 10.049300 12.384400
S 7.687900 6.154740 14.009900
S 7.045980 6.887950 13.849400
S 7.073560 7.181690 14.833900
S 7.733140 6.232760 14.939500
S 6.250210 7.545870 15.053800
S 6.265430 6.599590 14.347300
S 8.547910 6.919490 14.653600
S 6.563290 9.113380 13.880000
S 7.411710 8.749350 13.826200
S 7.326480 9.313040 14.553100
S 6.246410 11.058900 13.987900
S 7.277470 9.927090 13.803600
S 6.407140 10.228700 14.387800
S 6.617340 7.404530 16.162900
S 7.912790 7.319710 15.304100
S 8.430740 6.492480 15.549300
S 6.213290 9.700190 15.184600
S 6.943560 8.047860 15.558300
S 32.597400 9.361990 9.683110
S 32.597100 8.798250 8.882970
S 31.509100 10.223400 10.745600
S 32.203800 10.465900 11.307800
S 33.105500 10.269500 11.002500
S 32.279600 9.765100 10.493800
S 33.387600 8.763070 12.153900
S 33.147800 10.337300 11.976300
S 33.100800 7.925160 13.661900
S 31.133500 7.631500 15.594700
S 31.001700 9.083720 16.273700
S 31.321400 8.211700 16.359800
S 31.755400 9.286880 16.754400
S 33.119100 10.292100 16.056000
S 32.023500 10.201700 16.851200
S 33.010900 10.504300 16.965600
S 31.499900 10.195000 17.691800
S 32.592900 10.787100 17.811900
S 31.761400 11.021300 18.219500
P 5.253470 0.822096 11.745300
P 5.533820 1.965860 11.584700
P 5.817430 1.172170 12.452600
P 5.612560 3.088930 12.971500
P 5.804730 2.720380 12.077200
P 4.805660 3.434120 13.485600
P 5.851280 6.221920 5.355030
P 6.039610 6.643040 9.644630
P 4.272350 7.215920 9.444780
P 4.977100 6.554420 9.185550
P 5.327560 7.416950 9.327670
P 3.905630 7.523170 10.773600
P 4.476770 7.863610 10.104600
P 5.261640 7.168770 10.256500
P 3.624690 8.501760 10.602000
P 2.928840 9.150260 10.463400
P 4.017980 9.431540 10.374700
P 4.947820 9.219750 10.639700
P 3.987590 10.735000 10.162000
P 3.246840 10.030700 10.419900
P 4.523370 11.073700 11.402600
P 4.765560 10.162200 10.488400
P 5.124420 11.727300 11.007700
P 4.461470 11.612000 10.271700
P 5.543580 31.839200 9.690200
P 5.901400 32.553700 9.201500
P 4.151280 31.291800 10.310200
P 5.080510 31.494500 10.515100
P 4.164770 32.111500 10.901700
P 5.020040 31.931200 11.440900
P 5.677160 32.232300 10.696200
P 4.907470 30.694300 12.505200
P 4.809400 32.779300 11.725100
P 4.831940 31.653600 12.633900
P 5.644460 31.856900 12.239200
P 4.818310 31.018200 13.481400
P 5.158920 31.806600 13.773600
P 8.438000 1.517100 1.459820
P 9.218180 1.781300 1.963990
P 8.080580 1.698540 0.603439
P 10.506600 0.734074 0.959060
P 9.717490 0.984897 1.423360
P 9.005870 2.693940 1.880050
P 8.210120 3.970160 0.612267
P 9.276350 3.322830 0.980608
P 8.830180 2.494250 0.788716
P 10.359200 4.201070 1.237670
P 11.270300 4.096140 1.330490
P 10.838100 2.853530 0.731121
P 8.876770 5.910050 1.068140
P 8.561310 5.060930 0.860238
P 11.256600 4.826840 0.610955
P 10.663100 5.208580 1.276110
P 10.329700 4.684640 2.004180
P 11.266100 2.370210 3.807470
P 11.501500 3.137360 3.274430
P 10.702800 3.352430 3.669670
P 8.125700 5.160140 3.858030
P 8.282740 4.278830 4.172490
P 9.124720 5.031970 4.054600
P 10.474300 5.431460 3.844800
P 10.886200 4.730020 3.053390
P 10.926900 5.706100 3.003480
P 11.499500 3.466650 4.250110
P 11.235800 2.669580 5.253500
P 9.510960 5.421070 4.884960
P 8.465850 5.498330 4.601120
P 8.572390 4.564070 5.071430
P 11.493800 5.504530 4.369930
P 10.108600 4.744810 5.434150
P 10.511500 5.271420 4.769810
P 8.519520 5.843640 6.516450
P 9.020190 4.121860 9.270490
P 8.047180 2.770490 9.682570
P 10.335900 2.871730 9.433150
P 6.474690 4.331970 9.603910
P 11.224100 5.391080 9.645280
P 9.922430 4.450510 9.550580
P 9.191050 1.807890 11.334000
P 11.084500 2.309490 11.339100
P 10.392700 1.713460 10.861200
P 9.708280 2.312770 10.045500
P 6.207580 4.221420 11.162700
P 7.625590 3.618400 11.209400
P 7.252270 4.218120 10.206500
P 8.106170 3.725150 9.841700
P 8.990800 2.705860 11.450500
P 8.332990 3.277480 10.632600
P 9.408570 3.141840 10.713100
P 9.057800 3.055920 9.846200
P 9.084850 4.120140 10.227600
P 10.534800 2.670110 10.424100
P 10.065900 2.539700 11.244900
P 10.064800 3.604290 9.989190
P 6.326180 4.721720 10.400600
P 7.100230 4.454910 11.325100
P 7.269860 5.277880 10.825500
P 8.022760 4.279500 10.722300
P 8.210640 5.461980 10.673400
P 9.066550 5.041360 11.078300
P 9.970010 5.801930 10.721600
P 10.609900 5.058590 10.537400
P 10.827500 4.344200 9.941380
P 9.895330 4.499620 10.568400
P 6.752100 1.194660 12.709200
P 6.479830 1.937260 11.892400
P 7.404690 2.063330 11.978300
P 7.751450 1.383960 12.656100
P 7.803810 2.306590 12.962700
P 8.297750 1.465240 11.867100
P 9.027650 1.655850 12.409100
P 8.589100 1.695340 13.217900
P 9.952060 1.481220 11.738000
P 10.261200 1.027030 12.559200
P 10.454300 2.117300 12.503900
P 11.089900 2.259470 13.232600
P 7.850120 2.694950 11.528000
P 8.445890 2.472930 12.302300
P 8.478240 3.495830 12.014800
P 8.078810 3.534560 12.878800
P 10.713400 2.904710 12.068900
P 11.382100 3.119160 13.103200
P 8.006130 4.349060 11.902300
P 8.404130 5.482190 11.718500
P 8.300650 4.688030 12.754100
P 9.007030 5.458050 12.693500
P 8.991870 4.672560 12.145800
P 9.677070 5.617810 12.046300
P 10.401800 4.239230 13.309200
P 9.908320 4.591000 12.541300
P 9.830540 4.640880 11.577900
P 10.459700 5.525670 11.527200
P 7.336180 1.724530 14.618800
P 8.060160 1.730170 13.981800
P 7.375310 3.237820 13.506100
P 7.409680 2.592090 14.209900
P 10.194300 5.047180 13.789000
P 10.330800 1.492670 26.697000
P 11.026000 1.670730 27.522900
P 11.111600 2.062920 26.683900
P 9.927130 0.624833 26.896900
P 10.452900 0.600372 28.909100
P 10.075700 1.787760 30.267000
P 11.142400 0.940882 31.026900
P 10.894400 1.482930 29.873300
P 10.616800 2.383890 30.986300
P 9.608190 2.424090 30.793600
P 11.045700 3.241770 30.938200
P 11.427200 5.848130 31.579000
P 8.851490 0.872396 32.422800
P 9.681040 1.313130 32.396900
P 9.628440 2.155670 32.847300
P 10.952200 1.967990 31.837300
P 7.990280 2.622440 33.318600
P 9.098620 4.182790 33.400100
P 11.013900 4.001220 33.003900
P 11.471200 2.752930 31.660100
P 9.896730 2.619910 32.029400
P 10.626500 2.749880 32.632100
P 7.977550 4.777680 33.051900
P 9.387470 5.949010 33.123900
P 10.746900 5.145100 31.624700
P 11.138600 4.688950 32.346700
P 10.831600 6.590490 1.240440
P 11.333900 7.220480 1.687390
P 9.770340 6.685810 0.729563
P 9.908440 7.521410 3.447700
P 10.600900 7.365210 4.129930
P 11.380200 6.618830 2.445620
P 10.617700 7.531970 2.841700
P 6.662430 6.053690 5.909160
P 6.698760 6.981600 5.601170
P 7.664790 6.570900 5.978110
P 6.514250 6.239790 4.715960
P 7.768710 6.844920 5.101580
P 7.441160 6.079780 4.639770
P 9.694630 6.153160 4.225740
P 11.098600 6.393980 4.481350
P 9.861770 7.002680 4.748260
P 6.119820 6.921350 6.347770
P 9.195630 7.223870 6.738430
P 8.022720 6.564470 6.877700
P 9.340970 6.282450 6.605550
P 9.611860 7.351600 7.737080
P 9.975690 6.578850 7.382930
P 9.174060 8.069940 7.199170
P 11.414600 7.948270 7.046510
P 6.810870 6.168570 9.281140
P 11.372900 7.351170 9.482200
P 11.454400 6.692250 8.469100
P 10.498300 6.884930 8.247980
P 10.165400 6.814220 9.328630
P 7.070520 6.977720 9.744100
P 7.620800 7.063540 10.462200
P 6.208020 7.422190 10.137700
P 9.005890 6.163520 11.379500
P 8.840080 6.120190 10.361200
P 8.071200 7.381070 11.282700
P 8.869820 7.042280 10.658700
P 9.477650 7.726890 11.014800
P 8.085670 6.391170 11.189700
P 9.842320 6.722050 10.448400
P 10.899200 6.333600 9.810650
P 10.646600 7.162240 10.270300
P 9.524970 9.041140 11.292200
P 9.667920 9.750130 9.969090
P 9.074550 9.740000 10.757900
P 10.037400 10.623200 10.050900
P 10.827400 11.212400 9.891960
P 9.430030 7.385340 11.881400
P 9.709310 8.290580 11.907700
P 10.493000 6.075950 33.423500
P 8.952700 33.034600 0.866172
P 9.012680 33.222600 1.822900