475
Atoms. Timestep: 0
H 6.002920 9.324660 7.757790
H 6.022940 9.368270 7.752030
H 6.050750 9.332610 7.745490
H 5.046170 9.604870 7.836100
H 5.090130 9.599580 7.822630
H 5.067470 9.652800 7.830310
H 5.460510 10.156900 7.032660
H 5.424400 10.160200 7.048430
H 5.450660 10.212900 7.048480
H 5.855070 8.243430 9.077950
H 5.791820 8.232830 9.085730
H 5.234550 8.899200 8.571260
H 5.180650 8.899420 8.581800
H 5.196320 8.940200 8.570190
H 5.802680 8.266060 9.069870
H 5.563860 13.410000 12.660000
H 5.118960 14.279200 12.315900
H 6.048390 14.547100 12.569600
H 5.172140 15.291900 12.107700
H 5.709160 16.176900 12.091300
H 7.543590 9.450240 6.976360
H 7.566290 9.492570 6.975700
H 7.589540 9.476760 6.963540
H 6.978420 9.083730 7.673750
H 7.011380 9.065650 7.668340
H 6.959670 9.044440 7.679490
H 7.933900 8.799200 7.595480
H 7.916420 8.764220 7.601180
H 7.972010 8.798690 7.591200
H 8.873170 8.484000 7.522880
H 8.889380 8.514670 7.517200
H 8.932630 8.531720 7.514060
H 8.760530 9.227270 6.777320
H 8.788210 9.232100 6.765430
H 8.738680 9.189450 6.777170
H 7.232760 10.356500 6.152050
H 6.586840 9.730460 7.054670
H 6.610820 9.777100 7.053970
H 6.628910 9.743720 7.040690
H 6.246440 10.421800 6.413030
H 7.237340 10.323300 6.129750
H 6.214010 10.416500 6.429850
H 6.243210 10.470500 6.434190
H 7.203420 10.305200 6.146110
H 8.167690 9.887870 6.258740
H 8.127510 9.856050 6.273240
H 8.154160 9.901410 6.277640
H 7.776320 7.709500 8.923660
H 7.705320 7.672400 8.929120
H 7.713640 7.697000 8.913320
H 6.785420 7.807970 9.206940
H 6.715920 7.783710 9.212860
H 6.724080 7.811020 9.195460
H 7.332490 8.358420 8.304300
H 7.346030 8.390370 8.293540
H 7.393850 8.387580 8.296000
H 6.375740 8.638630 8.382610
H 6.390550 8.674900 8.371810
H 6.433220 8.654540 8.373150
H 8.506190 7.954550 8.299030
H 8.562260 7.974410 8.304020
H 8.494930 7.928720 8.310550
H 6.387630 12.917300 13.047900
H 6.682730 13.866200 12.935600
H 7.612160 14.134100 13.189400
H 6.977830 14.815000 12.823400
H 7.907260 15.083000 13.077100
H 7.568030 16.712800 12.598800
H 7.272930 15.763900 12.711100
H 6.343490 15.496000 12.457300
H 6.586110 16.697000 12.271000
H 8.836700 15.350900 13.330800
H 8.391800 16.220100 12.986700
H 7.369540 12.933100 13.375700
H 8.246500 13.453200 13.555400
H 8.783510 14.338200 13.539000
H 1.932910 0.605035 13.341200
H 1.259140 33.374200 12.556600
H 0.992290 33.102000 14.760000
H 1.052960 33.213400 13.768000
H 2.135110 33.358000 14.354500
H 1.811570 33.199300 15.325100
H 1.048980 32.988500 15.992800
H 3.788110 6.001530 14.207800
H 3.749050 6.017450 14.165000
H 2.491310 7.066140 13.119200
H 2.484360 7.114010 13.070400
H 2.009740 7.975040 13.236800
H 2.018710 8.030980 13.189400
H 3.117700 6.377000 13.427500
H 3.142240 6.343790 13.474700
H 4.209220 6.131680 15.085300
H 3.113970 7.081330 14.137300
H 3.132800 7.053060 14.179500
H 3.659730 6.958670 14.966300
H 3.689600 6.946700 15.003400
H 3.123350 7.762320 14.884400
H 3.110230 7.785660 14.847200
H 2.566550 7.868680 14.060600
H 4.255850 6.131080 15.122300
H 1.826560 8.826930 13.795900
H 1.845540 8.882210 13.752600
H 1.990850 9.393570 14.646600
H 2.011240 9.439630 14.609100
H 2.564470 7.908320 14.018300
H 2.557100 8.577940 14.765500
H 2.560730 8.612640 14.728200
H 3.680160 7.655960 15.708300
H 4.236960 7.549610 16.532100
H 3.655990 7.662990 15.676200
H 4.201750 7.540330 16.505100
H 4.374920 6.689100 15.941900
H 4.420150 6.697710 15.973000
H 2.458590 9.523110 15.561100
H 2.471410 9.553860 15.529500
H 3.102760 9.194310 16.267000
H 3.104460 9.180850 16.294200
H 3.736100 8.457300 16.624100
H 3.755390 8.458500 16.649700
H 3.106490 8.489980 15.557100
H 3.113910 8.471590 15.589300
H 5.476430 7.788100 20.513400
H 5.477820 7.749000 20.502200
H 6.032050 6.939260 20.307100
H 6.024320 6.892780 20.302100
H 5.999990 6.957040 21.299700
H 5.967320 7.042970 22.303300
H 5.975660 7.021310 22.297400
H 5.509820 7.740130 21.751300
H 5.520190 7.715780 21.740300
H 5.999690 6.991120 21.305200
H 4.873400 8.712860 22.181100
H 5.064720 8.410240 21.183300
H 5.052330 8.437280 21.199400
H 4.895700 8.699320 22.162900
H 5.477450 7.791980 22.749500
H 5.934950 7.094830 23.301500
H 5.951330 7.085570 23.295000
H 5.495860 7.780040 22.738000
H 5.364300 7.967730 23.971100
H 5.393540 7.971620 23.958100
H 4.987590 8.540990 23.195600
H 5.016060 8.538770 23.178600
H 5.902580 7.146680 24.299600
H 5.927000 7.149840 24.292700
H 7.055620 5.343300 22.431800
H 6.947040 5.544960 21.411100
H 6.935260 5.503850 21.416100
H 7.061230 5.373090 22.425600
H 6.886600 5.632380 23.411400
H 6.882300 5.648660 23.407300
H 6.557780 6.070990 20.636600
H 6.570340 6.118220 20.635600
H 6.457180 6.293960 21.857200
H 6.455460 6.262580 21.856700
H 6.431130 6.326840 22.854400
H 6.424810 6.345820 22.855300
H 6.473500 6.293610 24.092600
H 6.458210 6.297840 24.093300
H 5.798850 5.938440 26.239700
H 5.841830 5.883490 26.188700
H 5.938600 6.374940 27.910100
H 5.198020 6.946910 27.755500
H 5.327870 6.523390 26.819800
H 5.287020 6.575710 26.875100
H 5.158740 6.993450 27.813700
H 5.979700 6.331390 27.856200
H 5.487080 7.040580 28.745200
H 5.448390 7.079740 28.803900
H 6.602180 5.198690 26.031500
H 6.557090 5.252400 26.077700
H 7.083290 5.184180 27.173500
H 7.405190 4.652470 26.390100
H 7.358560 4.701420 26.432500
H 6.301610 5.799690 27.072800
H 7.038510 5.228920 27.219500
H 6.258650 5.847430 27.123100
H 8.035700 4.391190 27.168600
H 7.988520 4.433120 27.209000
H 7.178260 5.665430 28.889800
H 7.221160 5.632080 28.841000
H 7.680940 5.548270 29.725000
H 7.498310 5.137920 28.102800
H 7.543070 5.100370 28.057600
H 6.761390 5.715880 27.956900
H 6.718460 5.756430 28.006500
H 8.324750 4.484860 28.158300
H 8.194900 4.908380 29.094000
H 8.149890 4.937150 29.137800
H 8.278170 4.519410 28.199200
H 7.638060 5.574420 29.773200
H 6.398400 6.283940 28.793400
H 6.439480 6.247590 28.740300
H 6.117580 6.779300 29.523600
H 6.078350 6.811450 29.580400
H 6.920590 6.233070 29.882300
H 6.879820 6.260460 29.935200
H 1.437380 11.010000 3.428840
H 1.473790 10.979600 3.411720
H 3.373230 11.244100 2.984150
H 3.401720 11.220400 2.937240
H 2.452320 10.872900 3.277360
H 2.485600 10.844400 3.239130
H 4.056420 12.993100 2.282120
H 4.037280 13.003700 2.303730
H 1.771370 14.660000 2.274070
H 1.750540 14.666200 2.219500
H 2.783180 14.524800 2.101480
H 2.765470 14.529100 2.068010
H 3.602480 13.920600 2.098840
H 3.619570 13.914700 2.104420
H 0.637400 11.589700 3.408780
H 2.101430 12.769600 2.748430
H 2.128490 12.752200 2.756600
H 1.382940 12.170900 3.082690
H 1.350900 12.194000 3.073220
H 2.307040 11.798300 2.997860
H 2.276870 11.821200 3.012890
H 1.204390 13.124800 2.841420
H 1.175460 13.142300 2.808760
H 0.600376 11.618500 3.398010
H 2.874030 13.333500 2.430510
H 2.851950 13.345100 2.423640
H 3.052580 12.379500 2.671780
H 3.027400 12.396800 2.688100
H 3.953370 12.024000 2.627770
H 3.976680 12.006900 2.586950
H 0.855247 14.284000 2.575960
H 0.829622 14.295000 2.512710
H 1.949930 13.706100 2.515330
H 1.925980 13.717900 2.483960
H 8.918840 6.479400 13.136200
H 8.885520 6.423230 13.077500
H 9.689030 6.188450 12.468400
H 10.607500 6.431830 13.264100
H 10.641300 6.451720 13.316800
H 10.710900 6.106150 12.324300
H 10.735100 6.134700 12.373000
H 9.715520 6.235620 12.521700
H 8.558540 6.800700 14.052100
H 8.515690 6.747580 13.988500
H 8.731150 7.113450 15.023800
H 8.678640 7.074580 14.957200
H 9.694790 6.590370 13.640700
H 9.639280 6.941100 14.642200
H 9.591350 6.916040 14.580500
H 11.455500 6.596400 13.879000
H 11.361700 6.913420 14.822700
H 11.313300 6.924640 14.767100
H 9.733120 6.624070 13.698400
H 10.504100 6.757510 14.203900
H 10.547400 6.768750 14.260600
H 11.416800 6.598970 13.827300
H 10.400600 7.083180 15.143700
H 9.330720 7.316630 15.724000
H 9.390430 7.333830 15.791000
H 11.379300 7.301880 15.999500
H 10.453600 7.085770 15.204300
H 10.359700 7.402800 16.148100
H 10.297200 7.408860 16.083500
H 11.319100 7.326560 15.939400
H 9.335590 13.006800 29.023200
H 9.343980 13.050800 29.031400
H 8.628300 13.173000 29.760800
H 10.316200 12.823300 28.746400
H 10.322000 12.855800 28.753400
H 11.307300 12.671700 29.004300
H 11.310900 12.689200 29.010500
H 10.335800 12.882800 29.744400
H 10.342400 12.908800 29.751800
H 8.638930 13.222000 29.769900
H 9.500820 13.092000 30.260100
H 8.383810 13.277300 30.761300
H 8.395770 13.323600 30.771100
H 9.491890 13.057600 30.251600
H 9.511550 13.117100 31.249700
H 9.521180 13.145100 31.258500
H 11.199400 12.767400 30.235200
H 11.204200 12.778800 30.242000
H 10.362700 12.961900 30.750200
H 10.355500 12.942200 30.742500
H 11.219100 12.826900 31.233300
H 11.224600 12.831900 31.240400
H 8.679650 13.328200 31.766700
H 8.667630 13.291900 31.756900
H 9.403700 13.212700 32.480600
H 9.414500 13.234700 32.489900
H 10.383100 13.015000 31.748600
H 10.375100 13.001700 31.740500
H 10.403400 13.068100 32.747000
H 10.394800 13.061200 32.738500
H 11.381400 12.873000 32.469000
H 11.375400 12.877700 32.461700
H 1.081430 16.456600 6.217590
H 1.990540 16.730800 6.557230
H 2.010390 16.803400 6.515200
H 1.055620 16.397000 6.263360
H 1.677010 17.979100 7.716320
H 1.675780 18.017800 7.704090
H 0.693583 17.838400 7.601770
H 0.695046 17.858800 7.590400
H 1.352720 17.331100 7.052800
H 1.342060 17.284600 7.079500
H 2.656510 18.176700 7.817770
H 2.660430 18.119700 7.830870
H 2.586920 17.433000 7.100900
H 2.577940 17.361300 7.130980
H 1.028530 18.532900 8.238590
H 1.018100 18.545500 8.241690
H 2.215910 18.802700 8.469380
H 2.200530 18.835200 8.473710
H 1.341160 19.232100 8.892980
H 1.363480 19.227400 8.875420
H 9.443470 21.573000 21.361400
H 9.418600 21.627000 21.374500
H 10.273400 22.125100 21.281300
H 11.103900 21.727000 20.987700
H 11.127100 21.703100 20.976000
H 10.137100 20.954400 21.053300
H 10.172400 20.914900 21.033700
H 10.257000 22.165200 21.288800
H 11.112500 20.750500 20.772300
H 11.150800 20.729000 20.750800
H 4.356690 17.641800 27.872300
H 5.455470 17.746400 27.662700
H 5.360890 17.697200 27.626700
H 4.443110 17.710700 27.876500
H 3.279010 18.023800 29.513300
H 3.320350 18.127300 29.478300
H 3.661600 17.850200 28.541000
H 3.594670 17.761400 28.562900
H 5.799360 18.103600 28.712300
H 4.269770 18.159200 29.523100
H 5.260520 18.294600 29.532800
H 5.304660 18.364200 29.559000
H 4.483130 18.107200 29.050000
H 4.808610 17.968200 28.702600
H 5.380070 18.055300 28.610900
H 3.494300 18.358800 30.469000
H 3.510800 18.468000 30.437300
H 4.181910 18.780800 31.160800
H 4.182850 18.676600 31.173800
H 4.407730 18.416100 29.998100
H 5.712440 18.621000 30.363000
H 4.721690 18.485600 30.353300
H 5.229260 18.673100 30.507100
H 5.160160 18.892000 31.438900
H 5.153860 18.982000 31.455200
H 6.338200 17.912600 27.891800
H 7.098530 18.260400 28.680700
H 7.026750 18.230400 28.596600
H 6.201600 18.312300 29.119800
H 6.251280 18.430000 29.542500
H 7.288980 18.601000 29.639600
H 7.242030 18.565400 29.552300
H 6.427420 17.947600 27.957100
H 6.126190 18.621200 30.068000
H 6.947730 18.878200 30.576900
H 6.926380 18.827800 30.502700
H 6.164360 18.947400 31.193200
H 6.166220 19.017600 31.241500
H 1.290680 22.293500 22.238100
H 1.268900 22.310900 22.221900
H 1.838120 21.883000 21.519800
H 1.872300 21.871500 21.542600
H 0.905331 21.748600 21.193800
H 0.865451 21.762400 21.186400
H 2.505750 22.232900 22.229500
H 2.527580 22.220600 22.264200
H 1.125320 23.156400 23.726700
H 1.120690 23.130900 23.744700
H 2.331300 23.187500 24.003900
H 2.339960 23.209300 23.967100
H 1.702320 22.708900 23.049300
H 1.694550 22.728600 23.024600
H 0.699668 22.738800 22.924000
H 0.709049 22.715600 22.933500
H 2.695580 22.702300 23.165000
H 2.689430 22.718400 23.125300
H 1.550980 23.574100 24.529500
H 1.532330 23.546300 24.555900
H 3.376710 23.919100 11.099800
H 3.390460 23.904000 11.098700
H 3.378150 23.892600 11.082200
H 3.421520 23.897600 11.089700
H 2.841700 24.803800 11.152800
H 2.851290 24.785800 11.157100
H 2.838060 24.773900 11.140500
H 2.879000 24.778400 11.130000
H 3.482500 23.653800 12.293800
H 3.483200 23.658000 12.309800
H 3.471120 23.681800 12.312500
H 3.259970 24.057700 12.063500
H 3.611550 23.412100 12.741400
H 4.103510 22.623500 12.438900
H 3.854890 23.104500 11.564500
H 3.838570 23.121000 11.570600
H 3.877470 23.102600 11.571200
H 3.098420 24.217900 13.037300
H 3.111500 24.211500 13.055100
H 3.116790 24.211000 13.039300
H 3.103680 24.242600 13.054500
H 4.124680 22.606400 12.445600
H 4.122290 22.599200 12.413900
H 4.120120 22.601700 12.429700
H 3.621870 23.372300 13.243200
H 3.613300 23.370900 13.258800
H 3.602110 23.401200 13.263400
H 3.848210 23.096600 11.548300
H 2.395260 25.509000 11.681300
H 2.106640 25.888300 12.631500
H 2.106810 25.925400 12.636700
H 2.107900 25.892900 12.647700
H 2.099940 25.893700 12.596000
H 2.381840 25.513800 11.724100
H 2.376880 25.538200 11.715300
H 2.372650 25.504400 11.707600
H 2.981400 24.498700 12.106100
H 2.977430 24.492500 12.089900
H 2.609700 25.052200 12.851400
H 2.611720 25.049700 12.835400
H 2.605250 25.084000 12.845600
H 2.746840 24.863400 12.359300
H 2.972690 24.523200 12.103600
H 2.585290 25.023600 13.333100
H 3.449990 23.572300 13.715200
H 3.241610 23.924400 14.004200
H 3.234670 23.962000 14.005300
H 3.256160 23.929500 13.988700
H 3.371720 23.637200 14.953200
H 3.365660 23.681400 14.956200
H 3.395520 23.648100 14.938100
H 3.317840 23.657300 14.944500
H 3.801570 22.926700 14.393200
H 3.841170 22.909200 14.386200
H 3.860930 22.917600 14.371000
H 3.830480 22.947100 14.393600
H 4.096890 22.542000 13.478500
H 4.115100 22.530200 13.462500
H 4.100550 22.559800 13.472300
H 4.126940 22.533700 13.447100
H 2.102880 25.821400 13.680500
H 2.111290 25.822800 13.664700
H 2.103850 25.861800 13.670000
H 2.072150 25.829300 13.628900
H 2.368120 25.318500 14.545800
H 2.368790 25.364200 14.538400
H 2.385370 25.325400 14.530400
H 2.319360 25.333200 14.503300
H 2.736240 24.803400 13.796500
H 2.739810 24.765000 13.800500
H 2.751080 24.768200 13.784800
H 2.936860 24.378000 14.011000
H 2.832550 24.519100 15.011600
H 2.830650 24.566200 15.009200
H 2.775310 24.538200 14.984800
H 2.855430 24.529400 14.996500
H 0.707079 14.452500 24.343400
H 0.713334 14.498200 24.296800
H 0.668633 14.490400 24.322800
H 9.680640 19.312200 5.837500
H 10.222300 20.193400 5.792390
H 9.576570 17.780200 7.118940
H 9.444300 18.428900 6.323050
H 10.198300 18.542200 7.300080
H 10.820000 19.304200 7.481230
H 10.872000 20.070200 6.840510
H 10.250300 19.308200 6.659370
H 11.441700 20.066200 7.662380
H 10.924100 20.836300 6.199800
H 11.417800 18.415000 9.170080
H 10.768000 18.538200 8.121950
H 10.042000 17.539800 8.011900
H 10.715900 17.772100 8.762670
H 11.389700 19.300200 8.303100
