9000
Atoms. Timestep: 0
O 0.835643 1.705050 2.196360
O 2.957960 3.760430 0.698443
O 0.977863 2.582380 2.574080
O 1.427650 2.548060 31.403500
O 0.909213 3.373070 31.398500
O 2.261630 2.884930 31.704600
O 3.741040 4.207450 33.239500
O 2.543210 2.984220 32.665700
O 3.413020 3.109500 32.940200
O 4.337530 2.777000 33.008800
O 4.593000 3.719850 33.117800
O 32.354700 2.328250 1.992840
O 33.068000 1.735570 1.449650
O 32.725100 0.852724 1.275750
O 32.040600 1.535300 1.384630
O 32.974800 2.655580 1.010950
O 33.101900 2.845040 1.905570
O 32.947500 2.341380 2.983450
O 32.439400 1.635560 2.599450
O 31.206300 1.930370 31.461400
O 32.104100 2.272250 31.084800
O 33.257300 3.484260 30.488500
O 33.135200 2.655620 30.974800
O 32.471900 3.025850 30.298800
O 32.154900 3.229280 31.184500
O 31.866100 1.512040 33.189800
O 32.720800 1.944820 33.180000
O 31.791800 2.414600 32.758100
O 31.560100 2.713550 31.901100
O 32.449100 2.997500 33.081100
N 4.318430 5.934170 3.772960
N 5.703190 5.538150 5.481690
N 5.854050 6.006190 7.607820
N 5.759210 5.078120 7.758810
N 3.874750 3.493670 9.654100
N 4.727280 3.553220 9.128620
N 3.839220 4.488980 9.354360
N 3.996970 4.913690 8.511450
N 5.136150 5.474100 8.334770
N 4.817630 4.408580 8.666400
N 4.952050 5.246940 9.259280
N 0.969502 2.256630 11.482600
N 0.670551 2.333550 10.298100
N 0.633194 2.950870 10.989200
N 3.186830 2.523520 11.084700
N 3.719630 3.062960 10.508700
N 4.629710 4.510860 9.762000
N 1.739200 2.849090 11.700600
N 2.542290 2.724850 12.183300
N 3.471060 2.686440 11.945200
N 1.721240 7.119420 1.515100
N 1.017180 7.346260 2.123880
N 2.701820 7.224220 1.562260
N 3.970760 6.104300 2.806100
N 4.835570 6.368830 3.064680
N 1.129370 8.758590 2.471380
N 1.190150 7.913310 2.903670
N 5.073580 10.643600 3.827630
N 1.145310 7.817590 4.586090
N 1.469130 7.667120 5.501800
N 4.714300 7.254270 5.460260
N 4.387010 6.233110 4.699700
N 5.190110 6.684330 4.865030
N 5.919160 7.497730 5.734270
N 0.605506 8.624970 4.372210
N 0.820086 8.480460 5.263020
N 2.101080 10.289900 4.438960
N 1.236500 9.933400 4.251940
N 0.745745 11.488700 5.560080
N 2.783690 10.495000 5.051140
N 3.741450 10.280500 5.756930
N 2.836200 10.531200 6.012800
N 4.982430 11.306600 4.578700
N 5.288240 10.753100 5.298640
N 4.664010 9.982480 5.407970
N 4.959970 9.962960 4.507500
N 1.815570 7.634750 6.397600
N 5.061680 7.801720 6.158680
N 5.518500 7.813050 6.980660
N 1.768120 8.563320 6.687200
N 2.006340 8.572210 7.615980
N 2.805510 8.523390 7.112610
N 2.892770 9.364970 7.547220
N 1.379170 11.256700 6.242600
N 1.894070 10.485600 6.515210
N 1.130370 10.237000 7.041910
N 3.164920 10.337400 7.500270
N 5.229360 10.908300 6.212800
N 3.625560 10.750700 8.209520
N 4.492060 10.600100 8.559360
N 4.499130 11.475600 8.110710
N 5.245820 12.635100 5.562170
N 4.902390 11.748900 5.893450
N 5.885380 12.600000 6.304580
N 4.423770 16.320700 7.806880
N 3.970540 13.164400 8.620900
N 4.639130 12.429900 8.083090
N 5.114360 12.818200 9.135770
N 4.295240 12.369800 9.094450
N 5.239080 11.866700 9.113740
N 4.942300 14.452200 8.485460
N 4.903400 15.067400 9.235720
N 4.816550 13.386000 8.274740
N 5.448100 14.061100 9.167160
N 5.436150 15.905200 9.272590
N 4.773900 15.901000 8.624510
N 4.727210 16.572200 9.359020
N 5.143440 16.920700 8.518710
N 5.565400 12.696400 11.232800
N 5.508110 13.390400 10.591800
N 5.502200 14.173600 10.094800
N 5.879170 16.438900 10.327600
N 4.231890 17.165200 8.284630
N 5.379480 17.071100 9.871630
N 7.627060 5.904990 3.621150
N 8.396960 5.620000 3.103450
N 7.252520 5.102290 5.990130
N 6.454500 4.837290 5.459760
N 8.049590 5.409190 4.308050
N 6.562540 5.621170 6.482590
N 8.913340 5.215180 7.172690
N 8.791010 5.854780 7.836030
N 9.150810 6.054760 6.700850
N 10.426000 5.825830 7.120880
N 6.064400 6.422520 5.710030
N 7.031620 7.108760 5.647930
N 7.836380 6.849760 5.232940
N 6.215260 7.040940 4.942910
N 8.918330 7.062030 4.638120
N 8.621620 6.148410 4.652070
N 8.065860 7.510780 4.599450
N 7.141810 8.018150 5.970290
N 7.630900 6.880950 6.883370
N 7.175420 6.301460 6.280600
N 6.652310 7.443460 6.717760
N 6.472290 6.712200 7.372100
N 8.259370 6.398180 6.393400
N 10.373400 7.034690 6.701980
N 11.078400 6.379220 6.675750
N 9.792060 7.744540 6.875250
N 9.857760 6.545230 7.423050
N 7.204280 8.071800 7.328080
N 6.938500 8.724460 6.619060
N 6.258070 8.344120 7.289260
N 6.203350 8.316540 6.176700
N 7.947510 10.522100 7.053490
N 8.077150 11.392700 7.281830
N 9.593590 6.181000 8.284450
N 7.708890 9.375580 8.459440
N 6.271200 11.182600 8.503640
N 6.101490 11.472100 9.368520
N 7.813060 9.797290 9.332870
N 7.238460 10.548100 9.606020
N 6.352150 10.424300 7.889370
N 8.083500 11.060700 9.404920
N 8.591250 10.874400 11.092500
N 8.649880 11.125700 10.154900
N 7.194990 12.925100 5.241480
N 6.261720 12.747400 5.463170
N 7.307320 12.217000 6.981810
N 7.269670 12.539700 6.093510
N 8.000350 12.282600 7.612250
N 7.926230 13.532300 7.620070
N 9.790230 14.152900 7.644750
N 8.409810 12.986500 8.258490
N 9.626260 13.206600 7.909790
N 7.739790 13.736700 8.571680
N 8.921540 13.780100 8.222990
N 8.481570 14.531700 8.837010
N 9.148280 14.150000 9.454960
N 9.846190 14.126600 8.590850
N 10.498300 14.773900 8.254500
N 10.630500 13.976000 9.342520
N 10.830000 13.890900 8.393030
N 10.001500 14.688600 9.599270
N 7.608340 16.258100 8.177660
N 7.696490 15.732300 9.329200
N 8.397400 16.506200 8.620720
N 8.083450 15.474400 8.490270
N 8.512490 15.255100 9.526440
N 10.699600 16.446800 8.951800
N 9.756770 16.863700 8.889770
N 7.834260 12.623600 11.427700
N 7.901050 11.846400 10.944700
N 7.922750 15.116100 11.171700
N 7.609160 15.768100 10.525700
N 6.827270 16.678300 10.313000
N 9.435100 16.088900 11.133900
N 8.570620 15.800600 10.675700
N 11.071300 15.934200 10.053000
N 10.500600 16.662800 9.876860
N 10.202800 16.657500 10.943400
N 10.296300 15.776600 10.509500
N 6.070310 12.848100 12.001300
N 6.965000 12.882600 11.680000
N 8.444530 11.616100 11.718100
N 10.484900 13.813900 12.875900
N 7.142500 15.192200 11.754400
N 9.084070 12.742700 14.693500
N 9.269060 13.123600 13.847800
N 10.888200 12.870900 14.245200
N 10.002300 13.144300 14.494600
N 10.370900 13.070800 13.480400
N 10.449300 14.680400 14.474100
N 9.985360 14.011000 13.942500
N 10.898800 14.014700 13.759800
N 9.562130 16.037500 14.457000
N 9.087160 16.686600 13.960700
N 11.089600 16.865500 15.140800
N 9.708310 15.195100 14.021300
N 7.290570 14.889400 16.642500
N 7.944980 14.368600 16.233600
N 9.212670 13.472400 15.280400
N 8.604220 14.131000 15.613100
N 7.688770 15.710400 16.474400
N 9.012560 16.145000 15.924000
N 9.171880 15.467200 15.279400
N 8.428660 15.317800 15.976700
N 8.891540 17.255300 8.991210
N 7.835840 18.138500 10.648100
N 7.599680 17.128000 10.599200
N 6.788040 17.605500 10.670900
N 8.690370 17.888700 10.959400
N 9.795900 17.302700 13.769900
N 10.027100 18.158700 13.422300
N 10.167700 18.107500 14.331500
N 9.879540 17.329600 14.806600
N 11.230900 17.764300 15.436800
N 10.610300 18.415600 15.180300
N 10.192500 17.729200 15.664100
N 11.982800 15.827700 15.661500
N 12.018900 16.814800 15.468600
N 33.135900 8.270390 2.404160
N 33.350400 8.044950 3.577870
N 32.477100 8.080660 3.100970
N 33.221300 9.567570 4.432270
N 32.527400 9.228180 5.021950
N 33.030600 9.750740 5.627800
N 33.385300 10.527500 6.245720
N 33.008200 11.834500 6.225210
O 1.478280 4.199460 5.723300
O 0.673651 4.759080 5.719790
O 1.926370 5.134420 7.304590
O 1.667710 4.907330 6.448060
O 1.075310 4.735170 7.560330
O 1.503780 5.279260 9.345460
O 1.760040 5.391200 8.402250
O 2.420960 6.047960 8.678480
O 1.079650 6.052210 9.751230
O 1.013350 7.642960 7.290960
O 1.282300 6.721570 7.155210
O 0.940661 6.975700 6.139330
O 1.578720 6.406960 7.944910
O 1.151080 7.267820 8.147160
O 1.402200 6.366920 8.921190
O 31.840400 5.864830 5.498800
O 32.504700 5.109820 4.784720
O 33.398500 5.443360 5.019180
O 31.718300 4.928410 5.310880
O 32.781300 5.497520 7.489040
O 33.200000 4.862740 8.156720
O 33.068700 6.782200 4.186130
O 32.363400 7.378970 3.900310
O 32.980300 6.501010 5.908610
O 32.942300 7.360160 4.888460
O 33.038900 7.566680 5.839430
O 31.983800 6.677030 4.422940
O 32.572000 6.171730 4.976730
O 33.169200 6.457180 6.905460
O 33.218500 6.759090 7.802690
O 2.455530 5.842950 5.785310
O 2.486100 5.678310 4.503980
O 4.072100 5.175190 4.748160
O 3.395200 5.864030 4.544100
O 4.627960 5.232240 5.517990
O 4.320990 3.979780 7.600900
O 2.034100 5.980020 6.695270
O 1.178940 5.901770 6.248170
O 1.018460 5.694460 7.149430
O 3.796200 4.513070 7.039770
O 4.307990 5.189320 6.400820
O 4.629840 4.309900 6.571450
O 4.434010 5.777960 7.627780
O 4.729270 4.830290 7.518970
O 3.941560 6.046980 8.417000
O 4.863670 3.872250 11.206200
O 4.772110 5.996940 10.994700
O 4.439750 5.395860 10.322400
O 4.392080 5.533240 11.749600
O 4.767380 4.686600 11.700000
O 1.768750 6.472640 5.623170
O 2.428940 6.573000 4.908110
O 3.325470 6.764560 8.683420
O 2.842270 7.351050 9.221830
O 3.477860 7.707780 8.633840
O 3.940840 6.210290 10.324600
O 3.102560 6.696070 9.854020
O 3.682200 7.119730 10.483100
O 32.659500 5.292940 5.794160
O 33.231500 5.230900 6.608620
O 1.126560 1.067130 8.542710
O 1.865920 1.042470 9.164360
O 0.986351 33.380200 7.786960
O 1.620430 32.777000 8.157920
O 1.211350 32.944700 9.093570
O 31.520600 0.705155 9.758110
O 31.651700 0.668296 11.023900
O 33.217400 0.888183 10.461000
O 31.335500 0.805213 11.914700
O 30.182800 1.156620 12.887400
O 31.134200 0.976084 12.836400
O 30.165400 3.984630 13.071700
O 31.031400 3.666490 13.229300
O 29.626300 1.253920 13.667700
O 29.312400 1.949400 14.239300
O 29.966000 2.591990 14.302000
O 30.310900 3.215920 13.671700
O 29.725100 4.662780 13.539500
O 29.643500 33.325900 9.483070
O 30.556500 33.339400 9.693980
O 33.193000 33.387400 9.479870
O 33.214700 32.814500 8.593500
O 32.945200 32.448300 9.441900
O 30.727900 32.447100 10.285500
O 29.922700 32.419100 9.720130
O 31.663900 32.562400 10.423200
O 32.397100 33.340200 10.213200
O 32.502400 32.138400 11.414900
O 31.602200 32.488900 11.453200
O 32.491300 33.039000 11.244600
O 2.669910 3.890050 8.934150
O 2.369430 4.295360 8.102710
O 3.394270 5.743670 9.249750
O 2.761210 4.993420 9.092410
O 2.893390 5.765610 10.697900
O 3.259840 5.135530 10.060600
O 2.774490 4.284410 9.782570
O 2.244760 7.334370 11.168000
O 2.459490 6.358500 11.326900
O 3.188910 7.295420 11.358300
O 3.013950 9.562180 10.717900
O 3.440310 8.230180 11.228400
O 3.598510 9.151300 11.388800
O 2.847320 10.187600 11.409900
O 2.931900 9.573570 12.075400
O 3.190320 10.445800 12.350600
O 3.619940 11.184000 12.890500
O 4.671350 11.437100 12.748000
O 2.040350 13.062400 13.116300
O 3.309750 12.128900 12.338300
O 4.050300 12.726200 12.370900
O 2.868360 12.931300 12.635500
O 4.579350 12.350600 13.115300
O 1.816120 12.261600 13.641700
O 1.575980 12.991000 14.297900
O 1.010950 12.829900 13.524900
O 3.493040 11.569100 13.697800
O 2.736300 12.718500 14.104100
O 3.248070 12.011000 14.555800
O 2.356890 13.516200 14.509100
O 0.784338 5.810790 8.285110
O 27.571300 6.897760 9.471090
O 30.259300 6.035470 9.611600
O 31.253900 5.703770 8.563620
O 30.329700 6.039830 8.645760
O 30.330500 4.893970 9.111340
O 32.632100 6.012170 8.393970
O 33.274700 5.408940 9.096700
O 31.048600 5.249260 9.738630
O 30.229000 5.432100 10.371100
O 29.785500 6.875500 7.804660
O 30.705300 7.116960 7.502140
O 28.895200 7.269640 8.152400
O 28.328100 6.836270 8.881130
O 31.173700 6.768150 8.465130
O 30.929800 7.660360 8.273070
O 31.045500 7.266780 9.302370
O 31.856500 6.115340 7.926690
O 32.129500 7.438960 9.663230
O 31.623500 7.996580 9.022370
O 28.686700 7.485790 10.707600
O 28.201300 6.382460 9.941950
O 28.307200 6.609760 10.873500
O 30.572200 6.280170 10.602100
O 31.558800 6.097200 9.999180
O 30.757400 7.132310 11.028600
O 31.693700 6.959960 10.371500
O 28.519400 7.857350 11.602300
O 29.122000 7.136380 11.649900
O 30.029300 6.874170 11.608600
C 3.283080 0.688059 13.108800
C 2.735770 1.061510 12.407300
C 1.648290 1.877220 16.635800
C 2.343640 1.360820 16.330000
C 2.394830 2.498030 16.899800
C 3.010350 3.190510 15.427600
C 3.010950 2.966820 16.370400
C 3.437140 4.046590 15.496500
C 3.245760 5.179840 16.473100
C 2.814150 4.512310 16.000800
C 1.972520 1.999160 17.573200
C 4.233740 1.065550 18.250300
C 3.057080 0.622398 17.202600
C 3.348580 1.328370 17.809800
C 1.748960 5.516240 18.801600
C 0.891415 5.834630 18.737500
C 0.618495 5.189600 18.135400
C 1.467160 1.193770 18.984200
C 1.532250 2.104640 19.430600
C 5.227170 0.820677 19.324300
C 5.753710 1.040620 20.061500
C 1.203370 2.879990 19.934500
C 1.593220 3.791100 19.437800
C 1.618370 3.634510 20.374100
C 0.601195 4.892500 19.259900
C 1.338530 4.508130 18.849900
C 2.170890 6.280640 18.427100
C 2.857550 6.546340 17.719100
C 3.115030 31.649300 13.160900
C 3.503090 32.451000 12.885700
C 3.483960 30.843000 13.495500
C 3.375710 31.099700 14.389500
C 1.682090 31.658400 14.590000
C 1.688550 32.417300 14.014200
C 2.649600 32.314000 13.943000
C 3.410710 32.643000 14.392500
C 3.416730 31.861700 14.922900
C 3.963330 33.028300 13.544100
C 1.835840 31.576700 15.525200
C 2.548570 31.035600 15.247900
C 2.491990 30.483100 16.002100
C 2.477340 31.080300 16.719800
C 2.151330 33.208700 16.235300
C 2.357750 32.217500 16.195700
C 1.381240 32.043200 16.339200
C 2.237410 31.103100 17.660400
C 0.994305 32.660100 17.132000
C 0.646961 32.869400 18.390700
C 1.570920 33.096400 18.640200
C 3.470920 32.001300 17.452000
C 3.885420 32.936800 17.368600
C 2.519160 31.956900 17.330300
C 5.054690 33.402100 18.408800
C 4.645260 31.169700 19.572200
C 4.737280 31.569100 20.467400
C 5.648460 32.991100 20.519800
C 5.345000 32.176900 20.986100
C 32.643500 5.220730 18.721600
C 33.360800 31.909100 16.777100
C 32.908800 32.675700 17.599500
S 1.063880 2.672490 12.576500
S 2.289180 3.447240 14.049300
S 0.835339 3.274680 13.365100
S 1.736330 2.923500 13.382800
S 1.517560 3.994940 13.446800
S 3.166840 4.130640 13.584000
S 2.884260 3.948090 14.638800
S 3.962780 3.489190 13.641200
S 3.324090 3.134160 14.378500
S 3.902600 3.842590 14.514000
S 1.295800 5.037310 13.779300
S 2.272180 4.514040 13.557500
S 0.696161 4.349000 13.864000
S 0.610382 5.959830 16.318100
S 1.546150 6.589350 13.137000
S 1.548880 6.846040 12.235600
S 1.012380 7.567250 13.035400
S 0.801941 7.419720 12.008000
S 0.665173 7.000280 14.708800
S 0.709310 6.884950 13.657900
S 0.847201 8.048960 13.869100
S 1.863240 7.260910 16.698600
S 0.955925 7.079660 16.544000
S 2.553230 7.402090 17.353600
S 1.845100 9.215880 17.653300
S 2.379080 9.310240 18.523500
S 2.058310 8.366850 18.366600
S 1.307340 8.867190 18.305900
S 2.845640 7.942980 18.061900
S 2.793810 8.583980 17.210500
S 3.669490 8.626720 17.768900
S 3.335370 9.484140 18.248300
S 2.808000 9.633900 17.439800
S 3.706150 9.398150 17.189300
S 1.607030 11.213600 17.024600
S 1.639270 10.167700 17.634200
S 2.317360 10.591100 17.003300
S 2.520270 10.203200 18.307900
S 3.242820 11.337500 17.068600
S 2.689780 11.045500 17.858500
S 2.407010 11.581300 16.589800
S 2.841860 12.145700 17.222800
S 33.328500 5.383820 14.136500
S 31.657300 5.867670 15.986700
S 31.587700 5.810580 16.932200
S 32.442700 5.892120 16.579400
S 31.742500 7.628750 11.530200
S 32.204400 6.839270 11.679000
S 32.443300 7.448580 12.356500
S 32.870900 6.755070 12.959100
S 33.112300 8.171370 12.333200
S 32.669200 7.974940 11.549500
S 32.727000 7.356410 14.198000
S 33.205400 6.109040 14.797200
S 32.770100 7.946970 13.471600
S 33.325400 8.051830 14.962600
S 31.825500 7.153900 15.736500
S 32.638800 7.656940 15.432700
S 32.276400 6.345740 15.457500
S 33.309200 6.457960 17.138200
O 1.402010 5.865950 11.768900
O 1.181220 2.051670 18.365700
O 0.746139 2.740950 18.837800
O 0.668023 3.909170 20.228200
O 2.115460 4.903730 21.911300
O 1.208570 4.650980 21.767500
O 4.165710 5.880810 22.197000
O 2.986030 5.479980 21.918400
O 2.370250 5.206760 22.768400
O 2.798550 5.427450 23.574400
O 3.715700 5.115960 23.709100
O 3.402790 5.681170 22.776200
O 4.582210 6.002490 23.078500
O 4.627200 5.090500 23.392500
O 2.976090 6.388430 21.980500
O 32.771800 3.955870 13.131000
O 32.424800 5.942040 12.187300
O 33.324800 4.701190 12.924100
O 32.490100 5.031370 12.512800
O 33.370300 5.481320 11.976600
O 33.326400 2.078510 14.741100
O 32.516400 3.333000 13.831200
O 32.982600 2.932650 14.576800
O 32.681000 1.892010 15.465300
O 33.351000 1.860090 16.690700
O 33.221400 2.499250 16.008500
O 33.361700 1.905870 17.681400
O 33.213500 3.479170 19.400600
O 33.395900 4.483140 21.024800
O 33.251400 6.447580 11.878300
O 4.523020 5.928520 13.345500
O 4.102250 6.196900 12.536200
O 4.754130 6.936120 12.599100
O 4.574680 7.804920 13.002700
O 5.583220 7.709000 12.988800
O 5.808580 8.608920 13.256000
O 6.034500 11.503500 12.305500
O 5.696770 11.142900 13.102700
O 5.844160 7.728840 14.030500
O 5.519520 8.135310 15.015000
O 5.026800 8.197640 14.191400
O 5.232320 11.338300 14.222100
O 6.029890 10.940500 13.941900
O 5.374780 9.598030 15.679900
O 4.973320 8.849370 15.238500
O 5.204760 10.503700 15.542000
O 4.802480 11.326400 15.908000
O 5.780390 9.978950 16.596300
O 5.965060 11.436500 17.319900
O 5.536230 12.257300 12.703300
O 4.819380 11.683600 15.015000
O 5.570510 12.013000 13.591800
O 6.362120 8.523170 13.987000
O 6.705370 10.235400 16.579000
O 7.061080 10.917300 15.987800
O 6.099650 10.471700 17.329600
O 6.948320 11.898200 14.398800
O 6.561730 11.923600 13.519200
O 7.674530 11.657000 15.991000
O 7.006000 11.672400 15.292500
O 5.969090 0.929598 14.709100
O 5.413390 1.858890 14.908300
O 5.115240 0.946308 15.087900
O 1.658160 27.283100 11.439100
O 1.141780 27.320600 12.223500
O 1.878590 27.918900 12.314100
O 2.126680 28.343700 13.191300
O 1.661190 29.148300 13.356900
O 2.158320 29.140400 14.245800
O 3.023340 28.701200 14.309700
O 2.718870 29.110900 13.434400
O 2.959850 29.717900 14.127900
O 4.042630 30.578300 15.161100
O 3.200050 30.173000 14.978900
O 3.616490 30.244300 15.984300
O 3.469660 31.148900 15.939800
O 5.252130 31.376900 16.368600
O 4.441450 31.089700 15.956800
O 7.122150 3.436040 13.069300
O 6.212850 2.134220 14.479200
O 7.164030 0.982236 15.084000
O 6.374120 3.460560 13.642400
O 6.246460 2.554030 13.593800
O 7.799090 0.734253 15.790000
O 6.334980 1.452600 15.433200
O 6.172370 31.221900 16.081200
O 6.517280 32.542900 16.272700
O 7.086130 32.975900 15.630600
O 6.938480 31.590600 16.521200
O 6.918660 31.963000 15.656400
O 1.493980 4.123380 16.837000
O 0.744725 4.303170 16.341400
O 1.340880 4.470280 17.746300
O 32.683600 3.961990 16.566700
O 31.725100 2.228550 18.013100
O 28.378900 3.925410 18.542300
O 29.370600 3.860690 18.483200
O 30.052100 3.283710 18.153900
O 30.663900 2.534260 18.183300
O 31.499000 3.137520 18.550500
O 33.311900 4.065870 17.556800
O 32.275700 3.705880 17.373100
O 31.878900 2.804250 17.278500
O 32.950800 4.202780 18.423500
O 32.095500 3.839970 18.441400
O 31.231000 2.154850 18.895500
O 28.800400 3.840330 20.337800
O 28.495700 3.629330 19.419100
O 30.511300 2.894140 19.166100
O 30.910600 3.730470 19.000600
O 31.307100 2.891910 19.716900
O 31.552300 3.634430 20.290900
O 28.082200 4.164370 21.445200
O 28.599600 3.403930 21.506800
O 29.559000 3.259860 21.712900
O 28.553600 4.658750 20.761600
O 30.754200 4.862700 22.088900
O 29.713300 3.444950 22.662400
O 29.805700 4.188370 23.203200
O 30.097300 4.988680 22.796200
P 5.253900 4.997900 16.269100
P 5.988170 4.376350 16.095700
P 5.127620 5.261850 18.356900
P 5.763690 4.366730 17.062400
P 4.873760 5.162240 17.133600
P 4.989490 5.928450 17.679100
P 4.436530 6.640190 18.159700
P 5.352600 7.402120 17.402800
P 5.064910 7.311220 18.345200
P 4.596230 7.834580 17.639500
P 4.751320 8.882700 17.766000
P 5.300920 9.160570 18.464600
P 5.525340 8.303370 17.799300
P 5.717660 10.024000 18.486600
P 4.897040 6.064210 18.848900
P 1.829850 9.690950 19.376000
P 2.163050 8.918770 19.704900
P 2.379230 8.108810 20.131900
P 4.161620 9.338490 19.864100
P 3.166000 9.240960 19.618700
P 1.808230 10.705000 19.346900
P 2.682160 10.342900 19.380400
P 3.133740 10.048300 20.159400
P 5.405670 9.752460 19.382100
P 4.999890 9.727940 20.211800
P 2.594230 8.238080 21.095900
P 3.041810 8.506890 21.876700
P 3.281590 7.880800 23.001700
P 4.110900 8.265450 22.732600
P 3.129460 8.856860 22.788600
O 5.521400 2.060320 17.084200
O 5.242220 1.546470 17.989900
O 5.995790 1.067170 17.485200
O 5.272880 2.525020 17.960600
O 7.065350 2.176490 15.666300
O 6.302680 2.171570 16.493500
O 7.268880 1.977470 16.572400
O 8.003370 2.449820 16.953100
O 6.783990 1.623140 17.546200
O 7.427510 2.531440 17.748800
O 6.453720 2.501230 17.755500
O 8.039730 3.329210 17.371100
O 8.530030 4.068850 18.224800
O 9.206030 3.925860 17.589500
O 8.993080 3.077950 17.166400
O 9.019280 4.522650 18.918200
O 9.319640 5.435940 18.843400
O 9.015610 6.215800 19.280400
O 9.345340 7.011110 19.711300
O 10.069100 7.499470 19.319600
O 9.578770 8.176280 18.912100
O 9.014240 8.552030 19.594400
O 9.870900 8.672290 19.955400
O 10.335600 9.361800 19.544700
O 11.048100 9.957850 19.895400
O 10.967500 10.233500 20.800200
O 11.028600 9.773850 21.602100
O 11.891900 9.670890 21.146200
O 12.637900 9.120140 21.245300
O 13.241100 9.835350 21.556500
O 4.740040 0.772252 20.458600
O 5.264820 0.927890 21.301700
O 3.310120 32.943100 19.788800
O 3.152450 32.232100 20.394100
O 4.182950 33.393900 19.705000
O 1.757810 29.403900 22.100000
O 2.232220 30.900400 21.532300
O 2.427770 30.594800 22.432200
O 3.746590 31.497900 20.787900
O 3.360920 32.041300 21.516300
O 4.153880 32.357900 22.294800
O 2.421520 31.829300 21.466000
O 5.166660 32.623700 21.917800
O 5.248520 31.658600 21.921900
O 4.373960 31.734600 21.562900
O 5.877190 33.274300 21.850400
O 0.720236 29.090400 22.800600
O 1.507660 28.582200 22.597400
O 1.616600 30.149900 22.622600
O 4.772540 30.837000 23.891800
O 5.504310 30.756800 23.269200
O 4.460190 32.862200 22.987000
O 5.089450 32.428600 23.622700
O 4.751990 31.733600 23.056000
O 5.667060 31.629300 22.945300
O 32.368700 30.807900 22.427700
O 32.031100 29.928800 22.362700
O 32.585600 29.185200 22.472600
O 32.717300 30.044200 23.887000
O 32.166000 30.541100 23.291200
Z 4.199010 3.762860 20.998400
Z 5.070660 4.121080 21.197800
Z 5.609060 4.085420 22.065200
Z 3.396850 4.322850 21.878700
Z 4.284570 4.297060 21.777100
Z 3.461500 2.810100 23.318300
Z 2.640310 3.155120 22.915200
Z 4.141520 4.100540 23.523200
Z 3.340610 4.231360 24.253500
Z 3.861290 3.411750 24.217800
Z 3.437100 3.679760 22.581000
Z 4.420070 3.180830 23.379200
Z 5.503080 4.231620 24.158200
Z 5.779160 4.165240 23.220000
Z 4.989230 3.874680 22.785400
Z 2.012430 1.898540 24.858500
Z 1.252580 2.238990 25.377300
Z 0.857889 1.386630 25.518700
Z 2.974090 1.708590 25.076600
Z 2.552560 0.905380 25.260500
Z 4.847590 3.449780 24.355800
Z 5.337870 2.684810 24.632900
Z 5.755740 2.617840 25.493400
Z 4.245100 4.494240 24.366900
Z 5.236180 5.017200 24.654500
Z 5.398580 5.100630 25.603500
Z 0.718329 1.983460 26.505800
Z 4.071640 0.921680 26.816900
Z 3.206590 0.609120 26.671600
Z 4.885280 1.801400 26.765700
Z 4.655380 1.277170 27.551600
Z 2.730070 4.228510 27.354100
Z 4.035890 4.061500 27.235500
Z 5.183260 2.693770 27.062600
Z 3.023170 5.217750 27.527000
Z 4.230070 5.034290 27.277300
Z 3.442000 4.667890 26.807400
Z 3.283420 4.229170 28.126900
Z 4.233190 4.275670 28.278900
Z 3.917630 5.731140 29.231800
Z 4.151530 4.743520 29.323700
Z 3.876810 5.273530 28.126000
Z 4.828310 4.936880 28.626500
Z 4.511370 3.833990 31.344700
Z 5.708590 4.228210 30.926300
Z 5.914520 3.620140 30.090100
Z 3.504070 5.283210 30.001700
Z 5.955000 5.532600 31.062600
Z 5.541070 5.008340 30.443900
Z 4.267370 4.952300 30.440500
Z 4.893930 4.732940 31.164500
Z 5.267660 3.713750 32.428500
Z 4.670520 4.361770 32.084500
Z 3.080830 9.370190 25.708700
Z 3.241330 8.439790 25.809700
Z 2.427770 9.962920 25.330700
Z 3.975180 10.152900 25.978300
Z 3.237290 10.468900 25.428800
Z 3.357690 7.277780 27.126300
Z 4.234850 7.574600 27.352300
Z 2.769370 7.844850 26.606300
Z 3.694090 8.082980 26.578400
Z 3.787040 9.626980 26.730300
Z 3.516270 6.153720 28.123500
Z 4.099640 6.960920 28.042900
Z 6.024750 8.861600 30.434500
Z 5.587640 8.192280 31.127500
Z 5.400950 8.149030 30.208400
Z 4.931670 10.920600 31.462900
Z 4.716700 9.974780 31.368400
Z 5.861350 8.801050 31.882500
Z 5.562800 9.722030 31.687200
Z 4.894600 12.927400 29.747900
Z 4.232420 13.024600 30.417400
Z 4.661590 12.129200 31.336800
Z 4.400970 12.078100 30.420600
Z 4.633500 13.854800 29.833100
Z 4.976210 11.637100 32.140400
Z 2.439890 33.374800 26.114100
Z 7.539000 1.704010 25.325600
Z 6.572710 1.859420 25.600600
Z 7.805440 0.882186 25.819000
Z 8.142550 2.032880 26.030800
Z 6.759540 2.470740 24.816700
Z 6.406700 3.254750 25.349200
Z 9.635650 2.936050 25.946900
Z 7.209090 2.022800 26.347100
Z 6.772500 1.657930 27.090900
Z 6.726180 2.130270 27.870200
Z 9.065470 2.206830 26.155600
Z 7.964230 2.285560 27.747000
Z 6.063640 2.916540 27.180300
Z 6.527300 3.155510 26.395600
Z 7.354660 3.642030 26.728000
Z 7.349540 2.742660 27.104400
Z 9.282740 3.543390 26.535500
Z 7.514690 1.515030 28.011600
Z 6.991910 2.660780 29.090700
Z 7.065490 3.189910 28.252100
Z 7.897960 3.060740 28.583600
Z 6.494010 2.825310 29.968000
Z 6.442430 4.411480 30.253400
Z 6.151170 3.447470 32.331000
Z 6.697380 6.097780 31.149800
Z 7.592320 6.268750 30.777900
Z 6.923800 7.218040 31.477000
Z 8.352090 6.767020 30.993900
Z 6.635540 8.135220 31.460100
Z 7.040050 8.421600 30.666800
Z 6.621820 8.333370 29.808400
Z 7.710740 6.774210 31.687700
Z 6.839780 32.753700 26.026300
Z 7.901910 32.323200 25.720300
Z 7.199670 31.847700 26.136100
Z 8.263450 33.042300 26.289700
Z 32.931500 2.052840 25.773700
Z 33.000600 1.491040 27.097400
Z 32.803800 0.690733 27.923600
Z 32.411800 0.741677 27.065200
Z 31.925100 33.143900 27.877800
O 2.045160 5.967970 24.198800
O 1.100430 5.698850 24.294300
O 1.523920 6.780200 24.041000
O 0.703902 7.117000 24.412900
O 1.521160 7.494990 24.777600
O 0.889492 7.344790 25.464800
O 2.248480 8.969220 24.839100
O 2.331070 8.107890 25.214100
O 1.352640 8.774370 24.744500
O 0.953466 9.395040 25.449200
O 31.833900 3.516850 25.532600
O 32.306900 2.979690 26.111600
O 32.230100 3.566990 24.659500
O 33.037100 4.099060 24.390700
O 32.614100 4.225670 25.244200
O 33.355700 4.955850 24.541200
O 32.777500 7.422500 25.412300
O 32.116100 7.733960 26.062600
O 32.479200 10.314800 25.845700
O 33.182800 10.117400 25.165900
O 31.435800 6.728790 26.551200
O 31.054000 7.606810 26.521300
O 32.403200 6.732500 26.479700
O 31.994800 7.492470 27.012700
O 30.956700 9.343350 27.050300
O 31.298900 8.530140 26.579000
O 31.391800 10.485100 27.380000
O 30.773900 9.918780 27.833400
O 32.134700 10.668500 26.855200
O 31.898900 9.787940 26.410400
O 2.318850 6.052170 29.718400
O 1.448850 5.779760 30.082100
O 1.998980 7.847860 27.904000
O 1.277850 7.517910 27.451000
O 0.776497 6.680470 29.142000
O 1.477780 6.121420 29.206400
O 2.229790 7.034900 28.225600
O 0.693828 7.647520 28.240700
O 3.164120 7.083320 28.400300
O 2.864060 6.478950 29.076700
O 1.237340 6.971830 29.929100
O 31.016100 5.281450 27.916000
O 32.698600 5.994380 27.491400
O 31.947700 5.466270 27.776700
O 31.533500 6.009560 29.526000
O 31.282100 5.415350 28.816600
O 32.909500 8.286060 27.477400
O 32.283400 8.561960 26.779300
O 29.418900 7.659040 28.668000
O 29.684600 6.726710 28.454900
O 30.441600 7.144590 28.767500
O 31.130500 7.439000 29.410100
O 31.465500 6.805960 28.783200
O 32.353700 7.536790 29.633500
O 32.835700 7.143910 28.634900
O 32.062300 6.505330 28.019600
O 32.323400 7.848290 28.109800
O 29.224900 8.536950 28.942400
O 32.214000 6.634260 29.937300
O 33.245000 7.419730 29.908700
O 2.074320 7.750240 2.294910
O 3.403100 7.838930 2.121110
O 3.908480 10.800500 0.980422
O 3.840970 9.909840 1.412970
O 4.713020 10.247700 1.737700
O 5.582820 9.726360 1.769760
O 2.377650 7.161370 2.972790
O 3.818070 7.063040 2.547880
O 2.964890 6.635590 2.446500
O 2.068120 8.509270 2.956730
O 1.884090 8.028090 3.748970
O 4.231710 8.105900 2.523490
O 5.005280 8.633060 2.776880
O 5.140600 9.604140 2.592870
O 1.539840 9.308480 4.999210
O 1.828540 8.520520 4.575270
O 3.255840 9.413510 5.460980
O 4.093870 9.305260 5.926370
O 2.445130 9.517940 5.017020
O 4.117590 8.459840 5.448130
O 4.666410 8.091010 4.238200
O 4.729170 8.883840 4.824110
O 5.457500 11.380300 33.071900
O 4.781870 10.725500 33.372900
O 6.050330 11.270500 32.325400
O 5.649010 13.412200 1.199080
O 5.536280 12.560500 33.242300
O 6.605040 13.431500 1.203880
O 6.068980 12.158900 32.624200
O 6.295300 13.140100 33.174500
LPA 3.280520 8.086670 0.995873
LPA 3.479340 8.974010 1.222880
LPA 3.271380 9.196600 2.174050
LPA 1.393240 11.216900 1.334840
LPA 0.877714 10.154800 1.733090
LPA 0.672837 10.955700 0.820919
LPA 2.626550 9.781580 1.747040
LPA 1.426780 9.861330 2.446000
LPA 1.890590 9.935840 3.462260
LPA 0.961595 9.924080 3.252170
LPA 3.001480 10.346100 2.428430
LPA 2.747030 7.721200 30.652400
LPA 3.768910 7.423340 30.851300
LPA 4.222480 6.583340 31.148900
LPA 4.649190 7.782480 31.016500
LPA 2.378930 9.232630 31.555700
LPA 2.499700 8.635480 30.803800
LPA 3.510050 8.417660 30.731000
LPA 3.996810 8.238860 31.561000
LPA 5.231940 9.706950 30.279200
LPA 1.884520 11.445900 31.501500
LPA 1.802980 11.303000 30.505000
LPA 0.779032 11.455400 30.296900
LPA 5.748790 10.310400 30.823100
LPA 5.068520 10.575500 29.827000
LPA 4.518690 11.029400 30.560600
LPA 3.615800 6.456240 31.926100
LPA 3.026000 7.153450 31.617500
LPA 2.572430 7.584090 32.388800
LPA 1.865400 9.017410 32.358200
LPA 1.323170 9.391640 31.703800
LPA 0.768361 8.863340 32.446700
LPA 2.703750 8.315710 33.062100
LPA 0.661967 11.470900 32.160900
LPA 1.782150 11.104400 33.286500
LPA 1.005700 12.200600 1.282640
LPA 3.917390 12.843700 0.765614
LPA 4.315940 13.354200 1.444770
LPA 4.335680 14.333700 1.373420
LPA 5.069650 15.094600 1.490640
LPA 5.055490 14.405100 0.768258
LPA 3.061320 16.684700 1.254230
LPA 4.041110 15.400800 0.978667
LPA 3.153540 15.764600 1.029460
LPA 5.839720 15.380100 0.884538
LPA 5.332110 16.133800 1.115440
LPA 1.077170 11.802200 31.158500
LPA 2.067140 12.204600 30.268500
LPA 2.799900 13.292300 31.315500
LPA 2.612630 12.063800 31.020100
LPA 5.785200 12.001800 31.489600
LPA 2.086780 13.884400 31.516700
LPA 1.195730 11.855600 33.268200
LPA 3.243010 12.481100 31.677800
LPA 3.786430 12.771900 32.609900
LPA 5.406780 12.732300 31.900700