9000
Atoms. Timestep: 0
N 2.430360 1.284450 1.801630
N 1.740870 0.807566 2.475890
N 2.436860 1.523880 0.913328
N 1.369930 0.723819 1.585560
N 2.622490 2.395450 2.276090
N 2.539710 2.413340 1.308490
N 3.983020 1.009520 1.915120
N 3.229030 1.377960 2.375700
N 3.593720 2.307850 2.083400
N 4.369800 1.817070 2.360700
N 5.194570 0.965527 1.112470
N 3.463270 4.459330 1.239320
N 3.866580 4.614700 2.067110
N 2.728340 4.941730 0.893163
N 3.382840 5.699770 0.803140
N 4.474120 5.743370 0.722229
N 5.090270 1.817290 3.868140
N 4.722520 2.267470 3.077980
N 2.395720 4.331250 3.876730
N 1.486120 4.155150 3.576810
N 3.255600 4.135890 2.552140
N 5.937660 3.746940 4.337100
N 5.044190 4.083190 3.973980
N 5.252310 3.058910 3.813140
N 5.226170 3.331720 2.877170
N 6.012320 2.560000 3.834540
N 5.912660 3.721190 3.414210
N 2.279400 5.873450 4.244450
N 1.607050 5.079520 3.881210
N 2.517920 5.168390 3.334100
N 3.401300 4.858820 3.137300
N 5.756940 4.652770 3.691780
N 5.069140 1.211220 4.715000
N 5.351250 2.279120 4.664790
N 4.958870 1.101700 5.744940
N 5.765580 1.582780 5.336660
N 4.778770 2.015360 5.743740
N 1.208040 4.202200 4.610560
N 1.633100 3.387430 5.552070
N 4.371300 4.148490 6.044330
N 5.653630 2.553800 5.566400
N 4.612790 3.251260 5.784770
N 5.326280 4.103480 5.879380
N 5.296740 3.566810 5.141020
N 4.472200 3.724740 4.667960
N 1.413710 4.343950 5.549930
N 1.372840 5.321750 4.764030
N 2.190080 4.974690 5.024010
N 2.937250 5.417660 5.968890
N 2.995590 5.480640 5.050040
N 5.961630 5.055930 4.569500
N 1.646990 1.959450 7.668730
N 3.763090 1.334950 6.298560
N 2.823410 1.138960 6.445750
N 5.937330 1.279100 7.264660
N 5.863330 2.449070 7.382800
N 5.948660 0.894469 6.212930
N 5.771340 1.828000 6.423910
N 4.712140 1.395120 6.674330
N 4.878910 1.479930 7.622980
N 2.319280 3.041040 7.099210
N 2.107940 4.134740 7.831600
N 1.041320 3.583700 7.436560
N 1.525890 2.753060 6.288100
N 2.873440 3.809640 7.355060
N 4.728430 2.545450 6.520580
N 4.958990 2.549890 7.437490
N 0.896976 4.460160 7.746970
N 1.379920 5.646070 7.099390
N 2.228770 4.683730 7.114430
N 2.505980 5.603560 7.133630
N 3.108360 4.823540 6.658100
N 4.018520 5.083200 6.620550
N 1.889870 2.261920 8.562850
N 5.311950 2.226540 8.369510
N 6.118560 0.721340 8.133810
N 6.109030 1.081120 9.036140
N 5.423670 1.864220 9.355530
N 5.182070 1.236430 8.608960
N 2.324080 2.938960 8.043620
N 5.352600 3.055480 9.285710
N 4.973080 3.260570 8.451950
N 6.049060 2.811370 8.262890
N 4.852910 4.122830 8.233960
N 5.772620 4.090510 8.660140
N 5.491630 2.697060 10.150700
N 2.155450 1.794580 25.517600
N 2.935310 2.066670 25.025200
N 3.876260 1.912520 25.119000
N 4.713520 1.779210 25.648700
N 5.408130 2.197090 24.989400
N 5.760530 3.070520 25.180100
N 6.086510 5.533500 25.629400
N 5.277530 6.041300 25.720100
N 1.578740 0.792278 26.788600
N 2.066580 1.525450 26.433700
N 3.099360 1.470040 27.010500
N 3.438540 2.379440 27.097800
N 3.007370 0.743220 27.639900
N 4.416020 2.399870 27.631000
N 2.948310 4.264610 26.741100
N 3.228900 3.610450 27.344800
N 5.821960 3.103230 26.137100
N 5.598220 5.543810 27.692000
N 1.691250 0.826539 29.503700
N 3.310500 1.998200 28.006500
N 3.928760 1.865160 28.783100
N 4.229470 1.145000 29.531600
N 3.908790 0.969695 28.254200
N 3.364820 0.791471 29.003400
N 4.886150 1.874400 28.993400
N 5.063510 2.492140 28.276800
N 4.670240 0.723677 28.830100
N 1.809610 4.295300 28.786500
N 2.529470 4.145620 29.401300
N 4.056550 2.679460 29.420800
N 3.806770 3.095900 27.897300
N 2.452920 5.037150 28.769100
N 1.667560 5.442510 29.230900
N 0.765184 5.657570 29.345000
N 3.328900 4.580890 29.254600
N 5.169460 4.631960 28.739800
N 6.121750 4.629530 28.774400
N 5.451380 4.625410 27.853200
N 2.304870 1.148330 30.198200
N 1.749740 1.726270 31.061500
N 2.172270 0.977851 31.425100
N 2.532420 1.956540 30.615300
N 4.132230 0.723999 31.435700
N 4.092300 0.941845 30.432800
N 5.876820 0.857269 30.172100
N 4.346130 2.017870 30.048700
N 5.158290 1.520780 29.977700
N 5.381910 2.113190 30.841600
N 4.488360 1.578410 31.177900
N 5.054430 0.898454 30.934200
N 2.915740 3.822350 31.352300
N 2.665630 2.956890 30.854700
N 3.294840 3.221250 29.696100
N 4.044500 3.443760 30.321500
N 2.889030 3.922150 30.428800
N 4.673940 2.775730 30.824000
N 4.504940 4.311520 30.608500
N 2.498610 4.654820 30.854000
N 3.485350 4.736930 30.152500
N 3.676630 4.444420 31.036600
N 5.834690 4.500430 29.704300
N 5.574690 5.980440 30.459700
N 5.551660 5.682620 31.354900
N 2.514390 2.356970 31.605700
N 1.540720 1.041900 33.192600
N 1.454850 1.233870 32.060500
N 1.699430 2.171750 33.008000
N 1.661150 2.236070 32.021400
N 2.564450 2.500950 32.753000
N 4.279920 1.388600 32.388300
N 5.177780 1.801570 31.840300
N 5.190560 1.435930 32.720800
N 4.488430 2.241690 32.710000
N 6.049980 2.304940 32.689500
N 2.041770 4.128830 31.804400
N 2.381860 3.436430 32.336200
N 3.946820 3.722620 33.220700
N 5.394350 2.916560 31.515500
N 4.552680 2.688130 31.862200
N 4.595940 3.335600 32.601700
N 5.614870 3.188650 32.672100
N 1.402460 4.368350 32.444100
N 2.807550 4.888850 31.694600
N 4.142810 4.634900 32.966900
N 3.352610 5.164990 32.557200
N 2.776400 4.347650 32.530700
N 5.323750 5.859550 32.829800
N 5.590250 5.038830 32.292800
N 4.982520 4.365350 32.610700
N 2.065660 6.941600 0.798383
N 5.155410 7.526740 2.526440
N 4.664460 9.166780 1.890440
N 5.129210 8.307020 1.946160
N 3.537640 9.792450 1.340440
N 4.086970 10.108500 2.090370
N 3.923100 10.976200 2.440710
N 3.476600 10.763300 1.444830
N 2.400270 6.240110 3.322220
N 1.300660 7.520320 3.133040
N 1.760650 7.004290 3.793960
N 4.218570 7.422510 2.654470
N 3.811090 6.624870 3.446070
N 3.854120 7.540970 3.513890
N 3.021190 6.905360 2.973870
N 2.843280 6.651710 4.190800
N 4.934470 9.591230 2.700580
N 4.587710 10.455700 2.837100
N 1.715700 7.758770 4.370470
N 1.682730 7.312170 5.963020
N 1.414280 7.891650 5.265250
N 2.422470 7.333180 5.091150
N 2.487740 6.787050 6.056330
N 2.914510 6.489960 5.219430
N 3.572230 7.158480 5.791460
N 2.357040 8.084590 5.662750
N 3.778370 8.392840 5.428930
N 4.287980 9.000410 6.023960
N 5.892540 8.970300 5.908280
N 5.020700 9.205270 5.408560
N 5.921530 10.647000 5.277050
N 5.700620 9.818530 5.007800
N 5.538160 11.509400 5.042300
N 1.325470 7.338770 6.949820
N 0.744188 7.640680 6.304710
N 1.965780 6.389230 7.149410
N 3.318100 6.385090 6.218280
N 1.742640 8.060370 7.392200
N 1.785110 8.240940 6.415950
N 0.744141 8.612800 6.269080
N 3.431670 7.971170 6.235440
N 5.166450 9.145830 6.615960
N 4.556820 9.896220 6.387170
N 3.928670 6.431690 25.014400
N 3.528210 7.691960 25.319600
N 3.336460 6.826240 25.722400
N 5.579830 6.454510 24.864000
N 4.693900 6.266170 24.496300
N 5.513020 7.186180 25.529100
N 3.992890 8.545270 25.398600
N 4.927390 7.983280 25.488500
N 3.588770 7.908530 26.968000
N 4.213980 7.608630 26.122100
N 4.971630 7.870270 26.617300
N 4.622240 6.707230 26.164000
N 2.962250 8.624940 27.201000
N 3.502850 8.570640 26.228700
N 5.623910 8.277500 26.097600
N 2.358610 6.383810 32.678900
N 1.725510 7.347450 32.593300
N 3.234410 6.361200 32.369400
N 4.170220 6.377240 32.603600
N 5.962000 6.234310 32.059000
N 5.652220 12.576900 0.748036
N 6.013270 12.307500 4.831910
N 3.784100 31.403900 2.148530
N 2.317140 32.756500 2.064990
N 1.158000 32.524600 2.068940
N 2.012630 32.205500 1.353110
N 2.236370 33.009200 0.866936
N 3.155570 32.091200 2.034460
N 4.292540 32.563500 2.082470
N 4.019890 32.562400 1.006010
N 5.102160 32.502700 1.663980
N 5.933860 32.403100 2.212920
N 4.729610 32.004700 0.762101
N 5.965190 33.166900 1.528350
N 4.619400 29.388200 4.034560
N 3.996030 30.575000 2.901790
N 3.827730 29.744900 3.345970
N 3.952830 29.947400 4.300670
N 5.683630 29.923300 4.256070
N 4.286060 31.524600 2.975020
N 3.489110 32.835600 2.575370
N 5.251730 33.094500 4.081610
N 6.128090 32.885400 4.337080
N 5.252080 29.208400 4.714820
N 5.923740 31.461100 5.478420
N 3.232220 32.816200 4.761430
N 3.553490 32.288600 5.487420
N 2.953200 33.218300 5.651690
N 5.624910 33.057700 5.390880
N 5.973200 32.190000 6.122430
N 5.624420 32.148200 4.949110
N 3.205250 31.843500 6.269140
N 5.174890 32.580800 6.480360
N 4.944190 33.149600 7.221840
N 5.924720 32.889900 7.156350
N 5.656000 31.414600 8.241290
N 5.614160 32.716300 9.201910
N 4.666300 33.064900 8.887020
N 6.130070 32.269400 8.114690
N 5.841140 32.024900 9.819060
N 0.808430 30.891000 24.743300
N 1.053840 32.227600 25.745800
N 0.942337 31.794900 26.666200
N 0.796683 32.879100 26.969900
N 2.673550 32.919600 28.506700
N 1.445090 33.244500 30.680500
N 1.115880 31.923000 31.134900
N 2.031470 32.660700 30.031900
N 2.107290 32.584900 31.003200
N 3.991610 32.588100 30.684300
N 1.156520 31.067200 31.508500
N 1.926330 31.067400 32.877600
N 2.017630 31.156300 31.962800
N 5.373040 31.417000 32.993200
N 1.204770 32.699500 33.150700
N 0.735953 33.064200 32.391100
N 1.193320 32.951400 31.549000
N 1.985390 32.205200 32.783500
N 1.982690 33.054900 32.378800
N 1.865750 32.219500 31.809200
N 0.931869 32.031900 32.053700
N 3.865390 32.018300 32.775600
N 4.215430 32.829300 32.402200
N 5.857500 32.219500 32.829900
N 4.961690 32.190600 32.280700
N 5.064130 32.878300 32.998500
N 4.980910 33.277200 31.863300
N 6.535310 0.965264 2.273250
N 7.512770 1.098960 1.232620
N 9.132410 2.303640 2.525260
N 8.404500 0.889729 0.850686
N 10.065500 1.796190 2.529340
N 6.622680 4.273740 1.767500
N 6.311310 2.797310 0.904033
N 6.740020 3.663210 1.070080
N 10.445000 2.713450 2.384280
N 6.705460 4.649270 0.875518
N 7.662700 4.716480 0.892535
N 8.835680 5.693130 1.778400
N 8.722080 4.754080 1.615390
N 9.613560 4.869550 1.277120
N 10.405000 5.492040 1.461720
N 7.508830 1.445040 4.284030
N 7.865730 1.641330 3.403400
N 8.471000 2.355730 3.297480
N 9.523680 1.877590 3.285470
N 11.127900 2.391330 2.974240
N 10.735900 1.542990 3.089570
N 7.476230 2.602750 3.560480
N 6.748090 2.978830 4.111680
N 8.934690 5.543640 3.475970
N 9.285160 5.112320 4.256630
N 11.217000 5.332460 3.720080
N 10.994500 5.775950 2.730860
N 7.636860 1.176320 6.001200
N 7.728350 2.143980 6.013730
N 7.433220 1.760860 5.149930
N 7.906830 0.879518 5.141920
N 8.908690 1.704370 5.789210
N 7.754210 2.531400 4.471740
N 7.783260 4.214590 4.466320
N 6.155630 4.242600 5.064380
N 7.202880 3.953780 5.135520
N 7.522780 2.944260 5.309870
N 8.307010 3.146550 6.043190
N 8.240680 3.636440 5.238410
N 7.687720 4.687140 5.479600
N 8.337730 4.989310 4.365730
N 10.965700 5.739030 4.527600
N 7.799490 1.649140 6.987510
N 7.914250 0.917598 7.747260
N 9.590170 1.813450 6.501630
N 8.582480 2.075760 6.658230
N 8.639350 1.018330 7.151520
N 9.313260 1.724910 7.384920
N 7.674650 2.608310 6.802420
N 7.747720 3.680870 7.414300
N 7.537420 3.523780 6.453980
N 7.468240 4.450410 6.392380
N 8.155760 4.530470 7.278420
N 7.754000 1.978980 8.063000
N 7.936220 1.682210 9.596780
N 7.220290 2.407590 9.752010
N 6.320250 2.275400 9.361580
N 7.717390 0.773662 9.298040
N 6.147440 1.696180 8.264340
N 8.245200 1.193100 8.595940
N 8.160080 2.461070 8.845480
N 6.342270 3.477440 9.130440
N 7.623740 4.233870 8.622130
N 7.279090 3.610870 9.434740
N 7.978160 3.028630 8.069430
N 8.195790 3.549200 9.132440
N 6.721100 4.586490 8.696860
N 6.884210 4.872370 9.633610
N 8.134970 4.892360 8.141490
N 7.069090 1.463880 9.805150
N 7.642570 1.134720 10.767900
N 7.233390 2.014990 10.762900
N 6.598540 4.144900 10.136900
N 6.304360 3.204000 10.207300
N 7.527760 2.907280 10.573700
N 8.119660 3.533340 10.071200
N 9.606940 2.583310 22.111600
N 8.863040 3.212920 22.165700
N 10.653300 2.321210 23.561200
N 9.329250 3.569600 23.131300
N 8.757000 2.809860 23.067800
N 9.393680 4.160480 23.885000
N 11.278500 2.841970 23.131300
N 10.478700 3.888830 23.116500
N 10.275900 2.708780 22.787900
N 11.343300 3.752070 23.482500
N 8.511980 5.292010 24.146300
N 9.489890 5.229130 23.951200
N 10.416200 4.417040 23.935800
N 11.328400 1.702560 25.808600
N 10.127700 1.822760 25.529800
N 10.940200 1.507560 24.992200
N 7.687010 3.238150 25.726300
N 8.671660 3.668310 25.256200
N 8.641680 4.296030 24.504700
N 10.822300 4.214510 24.796500
N 8.209250 6.119850 24.529800
N 8.030150 5.302620 25.199200
N 9.038040 5.359820 25.010000
N 8.984370 4.531490 25.463400
N 10.030800 5.278120 24.712400
N 10.108800 4.659830 25.415400
N 9.763370 1.382650 26.294800
N 9.850870 1.432870 27.253000
N 7.460910 4.037010 27.828400
N 6.812400 3.319240 26.077400
N 9.687280 3.457340 27.782200
N 7.999150 3.273370 26.665200
N 8.617340 3.913490 26.370700
N 9.296690 3.443950 26.882400
N 9.049700 2.709880 27.436300
N 10.472400 3.755480 26.727700
N 10.602600 3.169200 27.744100
N 11.352600 3.437100 26.705300
N 7.588800 5.716210 26.437900
N 7.427770 4.719570 27.192800
N 6.571760 4.856670 27.766400
N 7.133040 5.609290 27.751000
N 6.331910 6.095010 27.559600
N 8.039480 5.660520 27.385500
N 11.388100 5.651080 26.083100
N 11.388400 4.565060 26.998600
N 10.341200 5.156180 27.092200
N 10.548500 4.630960 26.278600
N 10.104500 6.027070 27.468100
N 10.484600 5.650810 26.284900
N 7.445200 0.839122 29.060600
N 9.577330 1.411450 28.861400
N 9.015880 0.745139 29.438300
N 9.823770 2.524280 27.974000
N 10.156300 1.171540 28.131200
N 8.156410 4.054850 28.544000
N 8.271850 3.728820 29.392000
N 9.206650 3.776570 29.313800
N 11.524500 3.156970 28.063500
N 9.944110 4.259140 28.882700
N 11.321700 4.076240 28.340500
N 7.433280 5.071960 28.661800
N 7.321470 5.754610 29.368800
N 8.201860 4.878980 27.904700
N 7.977800 5.826680 28.464800
N 11.325800 6.083340 28.880000
N 6.666590 0.876064 29.687200
N 9.185620 0.769458 30.489200
N 9.857340 1.118780 29.677800
N 10.863300 2.242760 30.826700
N 10.861700 1.879030 29.948200
N 7.475040 4.090470 30.241600
N 6.563540 3.859230 29.946800
N 11.539400 2.544370 29.908500
N 10.179400 3.783070 30.674300
N 10.019000 4.318330 29.913600
N 10.191100 2.865620 30.944000
N 6.487320 5.615640 30.521000
N 7.219100 6.013010 31.071100
N 8.349430 5.658540 31.024600
N 9.323420 4.965180 31.101600
N 9.488710 5.243180 30.175400
N 10.464600 5.179520 30.309600
N 10.227000 5.845250 31.058200
N 11.426200 1.628900 31.772400
N 11.261400 2.580690 31.835300
N 10.831000 3.477320 31.678200
N 9.933740 3.525040 32.018100
N 7.665140 5.464570 32.869900
N 7.778310 5.314370 31.690200
N 9.405680 6.054710 32.197400
N 8.154140 6.134670 32.014600
N 11.258400 6.122420 32.858000
N 9.775920 5.244450 31.892700
N 6.846350 7.768720 1.416790
N 7.353770 7.510770 2.221560
N 6.451560 6.758240 1.188420
N 7.369760 6.866340 1.016070
N 8.033880 6.255320 1.528660
N 9.511720 6.350180 1.850440
N 9.878380 7.182230 2.433570
N 10.675000 6.305830 1.983640
N 7.223770 8.798800 0.902898
N 6.966520 8.701570 1.842440
N 7.689450 9.656560 1.249570
N 6.281570 8.546810 1.192950
N 6.841070 9.685840 0.834628
N 8.823940 9.568350 1.369780
N 9.407020 8.736740 0.933205
N 8.326590 8.913930 0.873961
N 11.563800 9.110320 1.364280
N 7.155210 9.958010 2.038790
N 7.786180 11.147200 2.267050
N 9.675270 10.019600 1.644450
N 8.267940 10.455600 1.734710
N 9.129180 10.790400 1.968120
N 10.902200 9.824270 1.681730
N 10.323700 10.647000 1.907310
N 11.038800 10.870000 1.293640
N 11.406200 10.530500 2.106830
N 7.686510 6.820200 2.833910
N 6.867630 6.975740 3.230410
N 7.493490 7.675270 3.473280
N 9.426210 7.744340 3.736140
N 9.191080 7.920350 2.807990
N 9.048830 6.245300 2.727250
N 11.345200 6.436920 3.393870
N 10.284800 6.470950 2.976790
N 11.056400 7.331220 3.500860
N 10.603000 6.426990 4.019950
N 6.562860 9.615760 2.712860
N 7.245710 8.797950 3.748960
N 7.427190 8.603100 2.834350
N 7.245180 9.750450 3.817920
N 7.769320 9.531810 2.975200
N 8.250620 8.015030 2.622710
N 8.371140 8.003520 3.615090
N 9.589570 8.649280 3.991380
N 9.518340 9.096210 3.145330
N 8.813500 9.699880 3.446940
N 11.395400 8.121080 3.109000
N 6.721830 10.439200 3.105160
N 7.635490 10.456800 3.173020
N 8.843240 10.014200 4.320490
N 8.495980 10.814500 3.952470
N 8.668670 10.726600 2.993720
N 9.426350 10.559500 3.568730
N 7.826110 9.757090 4.646140
N 10.090300 7.130400 23.926500
N 11.021600 7.013730 23.994900
N 7.735240 6.301810 25.733700
N 6.626030 6.243760 25.990800
N 8.588360 6.367950 25.411400
N 8.724270 7.548270 25.250100
N 10.030000 7.501360 24.804000
N 10.499600 6.825640 25.317300
N 8.514240 8.470440 25.119300
N 7.246420 7.394700 26.258800
N 7.069740 6.469080 26.777300
N 7.108970 7.751330 27.104700
N 8.223680 7.328740 26.045000
N 8.005240 7.335780 27.181600
N 7.958860 6.546340 27.725500
N 10.924900 6.595050 26.140200
N 10.181200 6.750450 26.681500
N 10.041500 7.674840 26.949400
N 9.916200 6.981820 27.676200
N 7.663670 8.264470 27.776000
N 8.561420 9.207750 27.818300
N 8.640880 8.678530 26.062800
N 8.082400 9.006290 27.021000
N 7.977750 8.157130 26.587200
N 9.958010 8.566290 27.298900
N 6.681210 7.409290 29.076900
N 7.446020 6.898380 29.157100
N 7.102160 6.299000 28.516700
N 9.631390 7.891330 28.010600
N 9.526480 6.311310 29.491700
N 10.578500 6.801150 28.366900
N 10.658200 7.641730 28.022700
N 11.033400 7.215610 29.421300
N 10.451400 6.280630 29.240000
N 7.871820 8.755390 28.737500
N 6.517720 8.875010 29.306800
N 7.567530 9.244810 27.919200
N 7.085840 8.169420 28.536300
N 7.332980 9.244210 29.657200
N 9.535540 8.801220 28.329800
N 8.829530 9.347750 28.702000
N 10.650700 8.539120 28.211700
N 10.647300 7.987000 29.033600
N 6.466310 9.816590 29.135000
N 6.324650 6.717940 30.741600
N 6.846570 6.434270 29.906100
N 6.842210 7.514610 30.759800
N 7.835780 6.208040 30.354600
N 9.764250 6.295230 30.408600
N 8.803910 7.687560 30.869600
N 9.239120 7.339790 30.059800
N 10.087600 7.192200 29.692500
N 8.305840 9.114790 29.713100
N 8.965130 8.457930 31.389400
N 9.286580 9.265570 29.726100
N 8.795040 9.266260 30.547300
N 8.991050 10.168900 30.465400
N 9.295790 10.623500 31.276200
N 6.860960 6.993080 31.599600
N 6.311660 6.710310 32.784100
N 7.238240 7.846230 31.842900
N 7.703390 6.868960 32.326900
N 8.088500 6.258330 33.108700
N 8.177080 7.640220 31.831700
N 8.617100 7.033520 32.458800
N 9.748060 7.152100 32.713900
N 9.700630 7.900030 32.141800
N 8.994830 7.834310 33.051300
N 11.283500 7.843440 32.233600
N 11.312300 6.767330 32.066900
N 10.335700 6.302020 32.367100
N 10.445900 7.361730 31.869200
N 10.616000 7.369200 32.912000
N 9.224230 9.728610 33.078900
N 9.165850 9.354480 31.580000
N 8.121540 8.062930 32.854900
N 10.745400 8.518820 32.645800
N 10.572800 8.353720 31.749800
N 9.921960 9.162320 32.762500
N 10.010900 8.069490 33.197200
N 9.763620 9.984770 31.949000
N 6.738690 12.310000 1.940740
N 7.523330 11.845800 1.580250
N 6.300040 12.008400 1.178100
N 8.484380 12.080900 2.280380
N 9.314430 13.665000 2.468270
N 7.647310 12.244600 3.727120
N 6.804060 12.343500 4.257350
N 8.825970 12.877200 2.583280
N 8.261870 11.800200 3.144850
N 11.024000 12.771500 3.600070
N 10.762200 13.717600 4.030980
N 11.387500 13.022200 4.451130
N 6.979430 32.066500 1.496900
N 7.658130 32.717000 1.465670
N 6.826610 32.655700 2.503150
N 6.917430 30.162000 3.631130
N 6.174590 30.695200 3.895530
N 6.150600 31.910800 4.211820
N 6.737200 31.420800 6.144850
N 7.058540 29.839200 5.412900
N 7.123640 30.752700 5.582690
N 7.047090 29.721700 4.458730
N 6.453320 30.929600 7.361730
N 7.049310 30.684900 6.654530
N 6.383070 31.874800 7.259620
N 6.147800 31.695700 8.990500
N 6.550420 32.860500 9.234940
N 6.841280 31.830000 11.347200
N 7.933740 32.780800 11.270900
N 8.083790 32.923200 10.355800
N 7.387980 32.360100 11.977700
N 6.242800 32.170300 12.945100
N 6.173410 32.031800 12.026600
N 6.390510 32.722100 13.703500
N 7.772930 33.157000 29.950700
N 8.730290 32.530300 30.080600
N 8.945420 32.309600 31.012200
N 6.788870 32.290800 33.163400
N 9.158610 33.142700 32.683500
N 8.924330 32.923700 31.742200
N 15.651600 2.042910 2.337500
N 16.604800 1.970770 2.183200
N 13.210900 2.995080 1.340430
N 12.291800 3.791430 0.991525
N 14.232400 2.580220 0.945466
N 15.113100 3.701580 2.373560
N 14.346200 4.241210 2.305520
N 15.186600 2.770750 0.797973
N 13.136300 4.477160 0.770559
N 16.068700 2.309500 3.165930
N 12.817900 3.484740 4.274990
N 12.202400 3.721310 3.588650
N 15.882900 3.120880 2.598120
N 12.949600 5.951650 2.904940
N 11.825000 4.589240 3.721620
N 13.392500 5.238850 3.352040
N 13.529100 4.702240 2.589140
N 13.745300 5.500220 22.343100
N 14.924700 4.650280 21.230400
N 14.539500 5.148790 21.938100
N 16.839000 4.864700 20.653900
N 16.243900 4.582200 21.357500
N 15.326600 5.290920 20.686600
N 15.576200 5.274510 21.624600
N 12.285600 2.385380 22.665800
N 11.830400 1.899740 23.395600
N 12.097100 3.324110 22.703500
N 12.752300 4.040390 22.758700
N 14.702300 2.592390 24.028700
N 14.638600 3.268430 23.306400
N 13.744600 4.148020 23.665400
N 13.824900 3.654850 22.847100
N 12.373700 4.469250 24.210100
N 13.231900 4.883840 22.890800
N 11.761000 1.900330 24.364800
N 12.230000 1.226180 25.215600
N 12.307300 1.913820 25.927000
N 12.702900 1.859120 24.710800
N 13.195400 4.194320 24.464800
N 11.720800 3.935450 24.635100
N 12.510300 4.062230 25.283900
N 11.783100 3.843540 25.840000
N 13.109100 3.861900 26.028200
N 15.372800 2.585900 24.785200
N 16.247500 3.530560 24.936400
N 15.191300 3.495600 24.392700
N 15.491700 3.344720 25.508600
N 15.389100 4.250500 24.965100
N 16.340300 4.543520 24.973500
N 14.333300 1.931660 27.472200
N 14.202000 1.993710 26.449100
N 14.683000 1.045000 27.629000
N 13.404600 3.733070 27.351700
N 11.967500 4.663720 26.313000
N 11.740400 5.507630 27.012900
N 13.398900 3.997640 28.255100
N 14.792400 2.958510 29.513900
N 11.885200 4.633590 29.364000
N 11.769800 5.241210 28.691300
N 14.716200 4.972740 28.545800
N 15.074300 5.068570 29.639800
N 13.932400 4.516810 28.871700
N 14.988500 5.832170 28.910100
N 12.845300 2.019370 31.075700
N 11.922600 2.380360 30.995800
N 14.278100 2.384690 30.190200
N 15.291100 1.796140 30.953800
N 15.248800 2.282980 30.158100
N 13.269600 3.702930 30.244600
N 11.587400 3.246750 30.591600
N 14.244000 3.634330 29.973400
N 12.446600 4.579120 30.183200
N 13.378000 4.543900 29.845000
N 16.986500 5.760680 29.866600
N 15.689200 4.607630 30.183500
N 16.611600 4.881740 29.853500
N 15.300000 6.023950 29.767800
N 12.412200 1.586120 31.867100
N 15.569700 1.826240 31.865200
N 15.468700 2.020810 32.835900
N 12.577500 3.033120 33.093200
N 13.763700 3.097010 32.808600
N 13.771800 4.134200 32.744500
N 14.678200 3.580960 32.127700
N 14.581600 2.750140 32.464200
N 15.652600 3.571080 32.643200
N 15.524100 4.017220 31.808000
N 11.895800 5.667560 32.273000
N 12.256200 4.471950 32.872100
N 12.729100 5.949810 31.860900
N 13.062700 5.634000 32.728200
N 13.409400 4.980030 32.150800
N 13.925700 5.023690 32.940100
N 15.967300 5.415240 32.838600
N 16.239900 5.537890 31.767200
N 16.909300 5.679780 32.485200
N 12.730200 6.933750 1.980050
N 13.119300 6.181870 1.056290
N 12.707800 7.494220 1.208830
N 13.453600 6.388180 2.207960
N 14.052200 6.183510 1.148350
N 15.595600 6.162900 0.758463
N 12.463000 9.445980 1.640970
N 12.772400 8.896400 2.402920
N 13.503800 8.438950 0.903814
N 16.254800 9.241320 1.828820
N 12.513800 10.631600 2.186230
N 14.764900 10.771200 1.891240
N 14.636300 11.506500 1.268550
N 14.589900 9.850060 1.810740
N 16.111900 10.164200 1.688280
N 15.601900 11.362200 1.331960
N 16.199300 10.686100 0.915622
N 12.032500 7.097470 2.799360
N 12.604900 7.870440 2.632230
N 12.127200 7.656600 3.618290
N 13.094600 7.126940 2.985450
N 13.816800 7.666290 2.595280
N 11.922800 8.729610 4.111530
N 12.187800 8.668040 3.153440
N 14.570000 8.143780 2.906570
N 14.846100 9.190150 2.964910
N 13.566000 9.372540 4.330690
N 15.456400 8.141740 2.609820
N 15.804400 9.027830 2.742090
N 16.588900 8.783980 3.559170
N 12.392800 9.970100 2.842750
N 12.496900 10.140000 3.786520
N 12.020600 11.312700 2.540420
N 14.104600 9.812040 3.708120
N 13.386100 10.444600 3.942510
N 14.293900 9.967960 2.754330
N 16.599200 9.785020 2.531830
N 12.833300 8.763750 4.432100
N 11.752700 6.378070 24.222500
N 12.549000 6.546870 24.698400
N 12.806900 7.285160 25.256100
N 13.598800 7.697440 25.091200
N 14.336000 8.094850 25.500900
N 13.704600 8.826420 25.457600
N 16.894500 7.533240 30.622000
N 11.634400 7.324040 33.004200
N 12.204700 6.787960 32.488900
N 13.357400 7.541060 33.133600
N 14.283500 6.946380 33.133100
N 15.858200 6.239360 32.263300
N 15.246300 7.088980 33.135000
N 13.823700 8.596860 32.467900
N 11.584100 13.095100 2.798290
N 11.664300 12.198100 2.529650
N 15.265600 27.320800 31.392800
N 15.503300 26.506000 30.931600
N 16.012900 27.547400 30.227100
N 15.870900 26.608900 30.090900
N 16.923400 27.608900 30.377200
N 14.519600 31.433300 27.526400
N 14.885400 32.564800 27.830000
N 15.589500 33.211400 27.730300
N 14.445600 29.715100 28.345200
N 14.528500 30.604900 27.987100
N 14.920000 30.250500 28.971500
N 14.478000 31.836400 28.375900
N 16.338700 27.929900 31.189200
N 15.394600 29.160900 30.408500
N 16.977200 29.508900 31.051700
N 14.945700 29.698500 29.772500
N 16.002400 29.695700 30.034000
N 16.050300 29.846000 30.964600
N 18.010400 0.736733 1.455810
N 17.812500 1.470140 2.088300
N 17.005500 1.129430 1.831050
N 18.066800 4.255400 30.806200
N 18.155100 5.178890 31.019900
N 18.527900 5.720110 30.200900
N 17.798500 6.105050 30.693400
N 17.501100 5.316740 31.799900
N 17.052400 4.525670 31.645800
N 18.060400 4.415810 31.782500
N 17.352000 9.039860 2.993940
N 17.173700 9.916080 3.377920
N 17.034700 6.690980 30.188500
N 17.326400 7.079620 31.301400
N 17.037700 6.195360 31.282600
N 17.194500 27.278800 31.223500
N 18.272000 31.283900 1.324970
N 18.845900 30.762300 1.854960
N 19.536300 30.111100 2.016430
N 20.489500 30.986000 2.310440
N 18.384000 32.345000 1.461760
N 17.669000 31.841400 0.842299
N 17.477100 32.252700 1.651600
N 20.030000 29.926800 2.884330
N 20.517600 30.687000 3.178100
N 20.544400 33.183800 3.189010
N 19.922200 32.450800 3.118560
N 20.558700 31.836800 2.732030
N 17.033800 28.510100 31.425600
N 17.853500 29.980100 31.059900
N 17.826300 28.194700 31.833600
N 18.043100 29.181100 31.481700
N 18.295100 27.996800 32.632700
N 18.274500 29.187700 32.421400
N 19.087200 29.427400 31.998000
N 19.131300 28.413100 32.336500
N 29.517100 3.446420 2.827270
N 29.287900 2.960280 3.596100
N 29.381200 4.103890 3.468770
N 31.500700 4.124240 4.149610
N 28.900600 4.418170 2.749840
N 28.713800 4.923300 3.532110
N 29.163900 5.384720 4.205010
N 30.340300 5.935190 3.854670
N 31.257800 5.319360 4.220980
N 30.294400 5.008700 4.138130
N 32.829700 5.433620 3.405910
N 31.990300 5.966240 3.977310
N 33.072100 4.498090 4.016950
N 29.814200 2.402090 5.059210
N 29.418900 3.121170 4.542410
N 29.558000 2.762760 5.919160
N 30.208900 3.460770 6.020340
N 31.151700 3.613010 5.699490
N 32.888300 3.804940 5.681660
N 32.366700 3.945810 4.582430
N 31.996100 4.119420 5.570810
N 29.888500 5.682290 4.710010
N 31.255900 4.650550 4.947770
N 32.064000 5.036310 4.695820
N 32.967500 5.523800 4.378580
N 30.399900 1.930480 6.868070
N 30.120500 2.157170 7.731650
N 30.355600 2.883130 7.020020
N 30.440200 3.819020 7.105840
N 32.430800 3.250940 7.306350
N 31.614600 3.734720 7.604930
N 33.185400 2.979860 6.421550
N 32.309500 3.303990 6.206520
N 30.719800 5.525600 7.671130
N 31.004200 4.656810 7.232460
N 29.984500 6.057570 7.366590
N 30.307700 5.329500 6.749540
N 31.126600 5.695450 6.473250
N 32.138700 4.708780 7.513040
N 31.890500 5.289520 6.860810
N 33.138900 5.159400 7.228930
N 32.801300 3.697520 8.055010
N 31.791400 4.138250 8.424750
N 31.827300 5.511820 7.982860
N 32.259800 5.013370 8.656300
N 32.475200 6.066210 29.205100
N 30.847900 6.467550 3.269810
N 32.851900 6.371700 3.557160
N 32.049500 6.800840 3.228080
N 32.908100 7.297980 3.165290
N 32.896400 7.611300 5.185530
N 31.999800 7.860080 4.923120
N 32.145300 8.639480 4.397380
N 33.035000 8.524400 5.357220
N 32.525400 9.430350 4.762180
N 32.442300 9.770040 5.621280
N 30.716500 6.969510 29.516600
N 33.206000 6.711550 29.349100
N 32.438500 7.325110 29.470400
N 29.052300 9.547660 29.398000
N 28.783300 9.781820 28.517600
N 29.984900 6.973440 30.104300
N 29.870700 7.657820 30.752400
N 31.578300 7.139950 29.897900
N 29.285900 9.036190 30.852000
N 29.723100 9.136620 29.974900
N 29.818500 8.401750 31.322700
N 32.267100 31.259300 2.148810
N 31.640400 31.960800 2.427110
N 33.098300 31.797900 2.381710
N 31.988700 30.819600 25.796600
N 32.413700 30.988900 24.944600
N 33.178300 31.430700 25.586400
N 32.795500 31.316500 27.222900
N 32.827200 30.703100 26.305000
N 32.733000 32.290400 27.363600
O 0.949384 1.234250 4.945100
O 1.562570 1.026790 5.614990
O 1.184110 33.125800 4.201790
O 1.917790 32.216600 3.929280
O 1.008360 32.210900 4.284750
O 2.418760 31.811200 4.612960
O 1.846240 32.992400 4.904050
O 29.892600 2.164620 4.066630
O 30.322400 2.995280 3.697670
O 31.103800 3.204740 4.241400
O 29.338100 1.545280 4.510870
O 31.168900 0.933972 5.288960
O 30.932100 1.336440 6.089270
O 32.642500 1.380060 5.433000
O 30.529900 3.206440 5.013150
O 30.337700 3.997090 4.456490
O 30.217000 4.238990 5.373330
O 31.457700 1.088540 7.054140
O 32.332300 1.539840 7.020890
O 32.921400 0.746576 6.174280
O 28.921400 32.348600 4.002960
O 29.036000 33.278100 4.053550
O 30.907900 32.756900 4.252980
O 30.131200 31.276500 4.426880
O 29.264200 31.622700 4.544410
O 30.605500 32.164900 4.914330
O 30.236900 31.489800 5.390450
O 31.706400 33.185600 4.547950
O 30.649400 33.264300 6.700780
O 32.340400 33.144300 6.943390
O 1.728760 5.105180 7.922390
O 0.767568 5.422100 8.216970
O 1.492280 6.014990 8.299540
O 2.400630 5.418290 8.540100
O 5.652000 4.950580 9.334230
O 4.894130 5.946390 9.196650
O 5.819310 5.913270 9.397420
O 5.754250 6.102530 11.395100
O 5.941310 4.929980 10.294300
O 4.881530 5.719300 11.431300
O 4.216820 6.533180 8.869900
O 3.607440 6.369270 8.115990
O 2.629420 6.249540 8.019230
O 6.372620 5.600160 10.856500
O 32.505900 6.111500 7.596440
O 32.654500 5.990900 8.515420
O 30.342700 7.367200 6.043070
O 30.955500 6.678350 5.707220
O 30.226600 6.257830 6.105450
O 30.312100 9.206930 5.888290
O 30.325400 8.300520 6.132450
O 29.808000 10.068900 5.835850
O 31.983600 7.830530 7.614770
O 31.808600 6.893620 7.856530
O 31.574800 6.160080 7.258830
O 30.337300 9.044680 6.935380
O 30.524400 8.792540 7.819910
O 30.397100 9.965590 6.605130
O 31.751300 7.877630 8.555680
O 31.336800 8.691800 8.324250
O 1.750250 1.572380 9.605660
O 0.790420 1.662080 9.720920
O 2.392520 1.806450 10.232000
O 2.422570 2.628410 10.722200
O 1.831490 3.080690 11.369500
O 2.130690 3.741240 11.998800