475
Atoms. Timestep: 0
H 3.328890 1.595800 1.318030
H 3.350940 1.641400 1.331590
H 3.498640 2.463770 0.779863
H 3.503730 2.500250 0.774060
H 2.011370 5.905830 5.510240
H 0.966103 5.425820 5.846480
H 2.039080 5.978250 5.564580
H 0.927233 5.383960 5.807260
H 1.827670 5.107160 6.142840
H 1.867800 5.181760 6.203400
H 1.213300 4.516070 6.650950
H 1.161420 4.456830 6.595610
H 3.335040 1.467330 30.030500
H 3.329360 1.504990 30.014000
H 3.492100 2.372820 30.507200
H 3.294290 1.256180 31.007100
H 3.498980 2.397290 30.510900
H 3.365070 1.719770 31.234100
H 3.182300 0.765469 30.997600
H 3.596830 2.926510 31.395300
H 3.585240 2.922530 31.379500
H 3.212790 0.833899 32.960300
H 3.231160 1.042250 31.957300
H 3.253540 1.045040 31.983700
H 3.280030 1.319020 32.917000
H 3.378640 1.772640 32.658200
H 3.413940 1.996540 32.193800
H 3.419390 1.983790 31.681600
H 3.596710 2.950840 32.430300
H 3.589490 2.969170 32.413700
H 0.890187 7.132050 4.403190
H 0.876750 7.109760 4.386290
H 1.681250 6.692100 4.905660
H 1.663310 6.638830 4.867290
H 0.845056 6.149790 5.169480
H 0.872828 6.180990 5.197600
H 3.014980 32.275900 0.901580
H 3.172040 33.181400 1.378270
H 3.132960 33.138200 1.341900
H 2.963350 32.245900 0.845075
H 3.003350 32.148500 30.634700
H 2.963690 32.179400 30.576100
H 3.156150 33.007400 30.077200
H 3.128450 32.876100 31.309200
H 3.133430 33.047400 30.037900
H 3.087690 32.665000 32.285800
H 3.048390 32.646600 31.720800
H 2.917590 31.679600 31.553700
H 2.865620 31.692300 31.484400
H 2.865490 31.716700 32.519400
H 3.097250 32.923400 32.680500
H 2.921850 31.726200 32.587900
H 6.505620 2.170020 4.854290
H 6.510100 2.198780 4.867470
H 6.604500 1.151640 5.012200
H 6.710490 1.574260 5.919010
H 6.706350 1.564950 5.917080
H 6.618700 1.178470 5.005260
H 6.479780 3.157800 5.256270
H 6.487820 3.137020 5.223620
H 6.555870 3.793540 6.021220
H 6.648010 2.557650 6.022790
H 6.641020 2.563930 6.044510
H 6.535870 3.798570 6.067500
H 6.968400 1.398890 7.621130
H 6.963520 1.376180 7.621000
H 6.808200 1.978270 6.821960
H 6.802270 1.970060 6.832760
H 6.894060 2.365850 7.746510
H 6.910060 2.391580 7.726840
H 6.871730 0.980391 6.707250
H 6.866540 0.985578 6.716250
H 6.749870 2.970960 6.927670
H 6.732810 2.959720 6.958260
H 6.691530 3.963650 7.033380
H 6.663350 3.949390 7.083770
H 7.094450 1.741330 8.798050
H 7.110790 1.786520 8.789630
H 7.128590 0.819517 8.420310
H 7.124770 0.782306 8.409240
H 6.828050 3.569840 8.032790
H 6.858450 3.601790 7.988890
H 6.985840 2.761640 8.660260
H 7.011910 2.804900 8.631730
H 11.182400 2.931880 24.270400
H 10.702900 2.710230 25.160700
H 9.570360 5.891850 25.780200
H 9.574990 5.964970 25.743600
H 11.284400 2.476100 27.060000
H 10.740300 2.543400 26.181800
H 9.581790 4.971010 26.253300
H 9.245530 5.377200 27.339200
H 9.467600 4.448280 27.042900
H 9.442960 4.398620 27.104700
H 9.598310 5.036540 26.201100
H 9.232000 5.335040 27.385100
H 9.295700 6.081650 26.722900
H 9.299220 6.135550 26.689600
H 9.191090 4.328070 28.106400
H 9.217880 4.357840 28.043500
H 8.893650 4.778240 28.989900
H 8.916070 4.789430 28.934900
H 8.957350 5.524850 28.327700
H 8.969760 5.547770 28.285200
H 8.643030 5.627420 29.478000
H 8.630350 5.628520 29.518600
H 9.470440 7.453610 1.343810
H 9.460380 7.501520 1.350280
H 8.255320 7.320500 1.124470
H 8.274710 7.242610 1.095570
H 9.057530 6.707810 0.894494
H 9.094980 6.645200 0.890463
H 10.455700 7.528040 1.498060
H 10.450000 7.551950 1.484770
H 11.036800 6.808670 1.163480
H 10.075600 6.520470 0.908771
H 10.116500 6.481020 0.928308
H 11.065400 6.794060 1.198960
H 7.875430 8.113160 1.488660
H 7.883960 8.194370 1.537090
H 8.873600 8.244800 1.671580
H 8.860660 8.187590 1.642910
H 8.004130 9.023600 1.964410
H 8.042940 9.095270 2.021770
H 9.236110 8.996000 2.096260
H 9.276450 9.038520 2.127370
H 8.626340 9.729980 2.395350
H 11.417100 9.281430 2.498750
H 10.831100 8.336450 1.951410
H 10.852900 8.345670 1.940560
H 9.845890 8.262020 1.797160
H 9.863230 8.295230 1.806070
H 10.266100 9.088950 2.261860
H 10.221300 9.070430 2.250500
H 11.471100 9.269970 2.487670
H 8.689670 9.781800 2.448660
H 9.650850 10.070000 2.703370
H 9.575320 10.043000 2.666010
H 10.668900 9.882660 2.717650
H 10.596800 9.878840 2.703850
H 9.411740 6.914400 25.812400
H 9.403880 6.984820 25.793100
H 9.021040 6.271460 27.665500
H 9.023460 6.306120 27.635600
H 9.084740 7.018070 27.003300
H 9.077150 7.064460 26.985900
H 9.130840 7.822810 26.336300
H 9.148440 7.764680 26.341100
H 8.851000 8.214850 27.224600
H 8.829030 8.254400 27.227600
H 8.810080 7.207880 27.945900
H 8.801390 7.235040 27.931900
H 8.746390 6.461270 28.608100
H 8.747690 6.476690 28.581500
H 8.460300 7.571910 29.077800
H 8.448600 7.575700 29.070100
H 8.471930 6.647260 29.527500
H 8.471730 6.651070 29.550800
H 8.599120 8.144290 28.226300
H 8.579310 8.163950 28.228200
H 6.757960 32.913400 5.655030
H 6.776500 32.928900 5.632730
H 7.068670 32.700200 7.598020
H 7.060540 32.721700 7.622700
H 6.924880 32.551600 6.610540
H 6.941200 32.549400 6.581740
H 12.050200 3.148950 23.749200
H 13.073900 3.303290 23.737000
H 12.852800 3.109050 24.692800
H 11.907100 2.923350 24.959400
H 12.631700 2.914820 25.648500
H 11.686000 2.729110 25.915100
H 13.979000 3.353540 24.237000
H 14.523200 3.286230 25.115200
H 13.577500 3.100520 25.381800
H 12.189600 2.526340 27.559900
H 12.410700 2.720580 26.604200
H 13.213200 2.680680 27.547700
H 13.356400 2.906290 26.337500
H 14.560500 3.119400 26.136200
H 14.081000 2.897760 27.026600
H 11.683500 7.495200 1.590370
H 11.687700 7.500440 1.629900
H 11.816400 8.410880 2.105650
H 11.842500 8.396100 2.075050
H 9.021390 28.673400 17.446100
H 8.166000 29.069800 17.873800
H 10.001900 28.785200 17.133300
H 10.844900 29.375200 17.019400
H 7.664990 29.868300 18.302000
H 7.652600 30.854800 18.615700
H 8.827270 29.820000 17.874500
H 9.745250 29.677600 17.504300
H 9.231850 31.462600 18.246200
H 8.570570 30.712500 18.245500
H 9.488550 30.570100 17.875200
H 10.149800 31.320300 17.875900
H 10.406500 30.427800 17.505000
H 11.312100 31.272000 17.448500
H 11.324500 30.285500 17.134700
H 8.132150 31.765000 18.731100
H 8.975140 32.355100 18.617100
H 9.955700 32.466900 18.304300
H 10.811100 32.070400 17.876600
H 0.827034 1.867750 18.133700
H 0.847469 1.840530 18.105700
H 0.808896 0.877841 18.436300
H 0.834677 0.852233 18.413800
H 1.226630 2.820100 18.205700
H 1.235480 2.797560 18.179000
H 1.900620 3.479690 18.632900
H 1.894730 3.466870 18.613900
H 1.529780 1.302690 18.983900
H 1.738650 2.273820 18.868600
H 1.741640 2.260680 18.853900
H 1.541240 1.288020 18.971300
H 2.047390 0.751141 19.646300
H 2.247790 1.723800 19.528900
H 2.250660 1.727540 19.531500
H 2.041790 0.756410 19.646800
H 2.954350 2.159590 20.086500
H 2.971540 2.152390 20.079100
H 2.753950 1.186930 20.203900
H 2.762670 1.181260 20.194400
H 2.459530 2.698670 19.416200
H 2.448190 2.696460 19.411500
H 2.648590 3.669130 19.294100
H 2.668390 3.669800 19.300900
H 3.324240 3.339470 20.030600
H 3.295060 3.350140 20.037100
H 4.170850 5.701740 20.121700
H 5.375290 5.945110 20.283000
H 3.674280 1.587320 20.929200
H 3.648120 1.607070 20.952100
H 3.692420 2.577240 20.626600
H 3.660910 2.595370 20.644000
H 5.853190 5.031400 20.970500
H 4.879050 5.154810 20.642400
H 4.189180 7.405750 19.074800
H 3.918340 6.525640 19.547900
H 5.871530 6.735410 19.923500
H 5.391170 7.420820 19.376300
H 4.894930 6.630530 19.735700
H 4.910810 8.106240 18.829000
H 5.889860 8.439420 18.876600
H 1.200530 32.656100 19.020600
H 1.177080 32.674300 19.032300
H 1.846990 32.337200 19.763700
H 1.832920 32.344000 19.762100
H 2.600850 32.539400 20.443800
H 2.600700 32.534100 20.430100
H 3.274690 33.193700 20.857300
H 3.260110 33.208700 20.878800
H 6.351880 6.050000 20.470800
H 6.832240 5.364580 21.018000
H 7.553870 6.065070 20.772300
H 6.367760 7.525710 19.564100
H 6.848120 6.840290 20.111300
H 7.824720 6.945180 20.299200
H 7.572210 7.769080 19.725400
H 6.864000 8.316010 19.204700
H 4.208070 25.820600 28.921000
H 4.167210 25.853100 28.874200
H 1.713730 27.136100 28.702900
H 1.662950 27.154400 28.686200
H 2.476600 26.705600 28.229800
H 2.529040 26.680300 28.256400
H 1.170300 27.455600 29.545600
H 1.214560 27.444100 29.556000
H 3.442030 26.198800 28.336300
H 3.393220 26.229300 28.298600
H 2.668750 26.654300 29.209900
H 3.514060 26.228100 29.532000
H 3.550830 26.202400 29.570800
H 2.711320 26.632300 29.238500
H 4.591170 25.677900 29.802300
H 4.621900 25.647000 29.854000
H 4.551510 25.750600 30.834200
H 4.572620 25.724500 30.885200
H 1.130640 27.528300 30.577500
H 1.165290 27.521700 30.587200
H 2.015600 27.029300 29.867700
H 2.054080 27.014200 29.888300
H 2.207750 26.978100 30.847800
H 2.236350 26.966200 30.870400
H 3.733110 26.154400 30.552900
H 2.893590 26.584300 30.220600
H 2.860910 26.603100 30.189900
H 3.706210 26.176800 30.512100
H 3.053060 26.551800 31.169900
H 3.075870 26.536300 31.202700
H 4.073460 26.032500 31.738300
H 1.579110 27.348100 31.520200
H 1.554600 27.353100 31.505600
H 2.328590 26.976900 32.081200
H 2.345150 26.969800 32.104900
H 4.058860 26.051700 31.693500
H 3.245210 26.500600 32.150000
H 3.258140 26.488300 32.184800
H 5.403320 10.789000 11.371100
H 5.343080 10.810400 11.397500
H 6.030660 11.566700 11.330300
H 5.744740 11.972100 11.555800
H 4.845380 11.617900 11.812200
H 4.829640 12.615300 12.089600
H 4.839780 12.567300 12.092400
H 5.972090 12.930700 11.727400
H 4.883860 11.575100 11.800100
H 5.748890 12.455800 11.691000
H 6.130650 14.131100 11.991600
H 5.282890 13.499800 12.169500
H 5.300080 13.535100 12.155200
H 6.094460 14.122700 12.010900
H 6.939770 11.455300 10.928900
H 6.189390 10.409100 10.956500
H 6.258960 10.419700 10.920200
H 7.221530 10.566100 10.568300
H 7.157540 10.521500 10.607300
H 6.416740 11.367700 11.128000
H 7.988110 11.117400 10.443700
H 8.033100 11.189000 10.409600
H 7.543450 12.680500 11.043100
H 7.567110 12.233000 10.888200
H 7.316100 11.721900 10.871600
H 6.644090 12.326300 11.299500
H 6.658000 12.344400 11.289600
H 6.871440 13.284900 11.471000
H 7.285340 13.122100 11.248800
H 8.458550 12.037300 10.509300
H 8.476210 12.121500 10.486800
H 8.432140 13.113700 10.779000
H 8.442810 13.034600 10.786700
H 7.945110 13.842100 11.201500
H 7.912680 13.899800 11.208100
H 6.376230 13.233500 11.650200
H 7.057030 14.269100 11.659000
H 7.098790 14.243500 11.642500
H 1.610880 19.201100 7.621940
H 2.231150 20.009700 7.439250
H 1.423820 20.398000 7.883560
H 2.418780 21.026300 7.494670
H 2.123490 21.978600 7.773340
H 0.724151 18.817400 7.993770
H 1.369980 21.382500 8.050600
H 5.824060 22.653700 7.492730
H 5.290040 23.449900 7.101860
H 4.813340 24.359700 7.231550
H 4.521690 25.139400 7.847060
H 1.424390 22.611500 8.200590
H 5.397000 23.662000 8.073250
H 5.503960 23.874100 9.044630
H 5.888130 23.029300 8.672030
H 5.995090 23.241400 9.643420
H 5.012820 24.506700 8.445850
H 4.493240 25.580000 8.783460
H 5.119780 24.718800 9.417240
H 5.610910 24.086100 10.016000
H 4.735610 25.563500 9.789840
H 5.717870 24.298200 10.987400
H 5.183850 25.094400 10.596500
H 6.272310 22.184600 8.299430
H 6.514680 22.168100 9.305810
H 6.486220 22.608700 10.242200
H 6.194570 23.388400 10.857700
H 5.777710 18.780600 23.361600
H 3.610150 20.588100 23.548500
H 4.218350 19.973200 22.979400
H 5.011730 19.311700 22.911000
H 4.563900 19.886000 23.913700
H 5.343590 19.289700 24.104800
H 4.129780 20.395100 24.656900
H 5.689140 19.202500 25.039200
H 4.909460 19.798800 24.848000
H 4.475340 20.307900 25.591300
H 5.255020 19.711600 25.782400
H 3.350100 20.991400 24.465800
H 3.507880 21.075200 25.485500
H 4.807190 20.286000 26.785100
H 5.600580 19.624400 26.716700
H 4.041210 20.817000 26.334500
H 6.311040 18.522400 24.210600
H 6.468820 18.606200 25.230300
H 6.208780 19.009600 26.147600
H 5.080570 16.898300 1.473080
H 6.059080 16.395800 31.426000
H 5.855730 16.917700 33.065000
H 4.957210 16.479600 33.093000
H 5.315370 16.295700 32.139200
H 5.652380 17.439600 2.145280
H 6.989060 16.753100 31.144400
H 6.406660 16.875700 32.231500
H 7.449420 18.315700 2.089240
H 6.519440 17.958400 2.370820
H 7.101830 17.835700 1.283760
H 6.203320 17.397700 1.311780
H 8.193130 18.415800 1.376020
H 7.856120 17.271900 31.370000
H 7.652770 17.793800 33.008900
H 6.754250 17.355700 33.037000
H 7.305180 17.313800 32.203500
H 8.427930 17.813100 32.042200
H 8.551290 18.231900 32.980900
H 11.286200 27.028600 24.333200
H 11.261900 26.962300 24.344000
H 10.486800 27.413600 24.866700
H 10.459600 27.350000 24.871100
H 9.983360 27.534100 25.771700
H 10.008100 27.579500 25.769500
H 11.068000 26.970300 25.568000
H 11.085000 27.004700 25.555800
H 11.427100 26.648500 27.231600
H 9.960800 27.465500 26.804500
H 10.830700 27.038700 26.522400
H 11.428900 26.629700 27.211500
H 10.818600 27.028100 26.534700
H 10.398000 27.162500 27.692700
H 10.405200 27.146500 27.681300
H 9.978180 27.481700 26.799700
H 11.177700 26.706300 28.198300
H 11.174600 26.663800 28.178000
H 12.955000 26.018900 24.837200
H 13.388300 25.709700 25.690200
H 13.392200 25.715900 25.725400
H 12.961400 26.044900 24.808600
H 12.191900 26.527600 24.311900
H 12.175300 26.475100 24.331600
H 12.535800 26.152700 25.967600
H 12.534300 26.153300 25.995200
H 11.937600 26.561700 25.278400
H 11.925900 26.532900 25.298300
H 12.879700 25.777800 27.623200
H 12.893400 25.831400 27.658800
H 13.358400 25.612000 26.720400
H 13.369600 25.647300 26.758200
H 11.676500 26.590700 26.265000
H 12.281500 26.186800 26.934100
H 11.683300 26.595700 26.245000
H 12.284900 26.211100 26.961900
H 12.080300 26.162800 28.156800
H 12.091100 26.219100 28.185900
H 16.918700 25.737400 4.502630
H 16.882700 25.235200 5.407260
H 16.875500 25.260000 5.340280
H 16.901900 25.764800 4.454320
H 16.863500 25.238100 5.344780
H 16.916900 25.772800 4.441850
H 15.962200 7.772770 24.229100
H 16.781200 7.200400 24.465600
H 16.782200 7.187760 24.468300
H 15.955000 7.787080 24.253400
H 15.453100 8.671950 24.293000
H 15.448700 8.686290 24.336500
H 16.952300 8.066510 24.914300
H 16.287700 8.808600 24.826600
H 16.298800 8.819880 24.845900
H 16.965000 8.076940 24.910500
H 15.398000 9.657090 24.692500
H 15.391200 9.644350 24.642900
H 16.482600 9.696410 25.290800
H 16.457800 9.687340 25.272600
H 16.551300 10.816800 25.774000
H 16.591900 10.823500 25.794500
H 15.816400 10.439400 25.226200
H 15.793200 10.429400 25.185000
H 21.992300 1.050610 15.046400
H 22.018000 1.035330 15.048500
H 20.844300 2.406060 15.910700
H 20.800100 2.410020 15.901200
H 21.969500 2.004520 15.837200
H 21.218600 1.618830 15.352200
H 21.186400 1.629940 15.340800
H 22.411600 1.707240 15.675900
H 21.824700 2.392610 16.107000
H 22.218300 3.064520 16.734400
H 20.937000 3.181810 16.577500
950
Atoms. Timestep: 0
H 3.328890 1.595800 1.318030
H 3.350940 1.641400 1.331590
H 3.498640 2.463770 0.779863
H 3.503730 2.500250 0.774060
H 2.011370 5.905830 5.510240
H 0.966103 5.425820 5.846480
H 2.039080 5.978250 5.564580
H 0.927233 5.383960 5.807260
H 1.827670 5.107160 6.142840
H 1.867800 5.181760 6.203400
H 1.213300 4.516070 6.650950
H 1.161420 4.456830 6.595610
H 3.335040 1.467330 30.030500
H 3.329360 1.504990 30.014000
H 3.492100 2.372820 30.507200
H 3.294290 1.256180 31.007100
H 3.498980 2.397290 30.510900
H 3.365070 1.719770 31.234100
H 3.182300 0.765469 30.997600
H 3.596830 2.926510 31.395300
H 3.585240 2.922530 31.379500
H 3.212790 0.833899 32.960300
H 3.231160 1.042250 31.957300
H 3.253540 1.045040 31.983700
H 3.280030 1.319020 32.917000
H 3.378640 1.772640 32.658200
H 3.413940 1.996540 32.193800
H 3.419390 1.983790 31.681600
H 3.596710 2.950840 32.430300
H 3.589490 2.969170 32.413700
H 0.890187 7.132050 4.403190
H 0.876750 7.109760 4.386290
H 1.681250 6.692100 4.905660
H 1.663310 6.638830 4.867290
H 0.845056 6.149790 5.169480
H 0.872828 6.180990 5.197600
H 3.014980 32.275900 0.901580
H 3.172040 33.181400 1.378270
H 3.132960 33.138200 1.341900
H 2.963350 32.245900 0.845075
H 3.003350 32.148500 30.634700
H 2.963690 32.179400 30.576100
H 3.156150 33.007400 30.077200
H 3.128450 32.876100 31.309200
H 3.133430 33.047400 30.037900
H 3.087690 32.665000 32.285800
H 3.048390 32.646600 31.720800
H 2.917590 31.679600 31.553700
H 2.865620 31.692300 31.484400
H 2.865490 31.716700 32.519400
H 3.097250 32.923400 32.680500
H 2.921850 31.726200 32.587900
H 6.505620 2.170020 4.854290
H 6.510100 2.198780 4.867470
H 6.604500 1.151640 5.012200
H 6.710490 1.574260 5.919010
H 6.706350 1.564950 5.917080
H 6.618700 1.178470 5.005260
H 6.479780 3.157800 5.256270
H 6.487820 3.137020 5.223620
H 6.555870 3.793540 6.021220
H 6.648010 2.557650 6.022790
H 6.641020 2.563930 6.044510
H 6.535870 3.798570 6.067500
H 6.968400 1.398890 7.621130
H 6.963520 1.376180 7.621000
H 6.808200 1.978270 6.821960
H 6.802270 1.970060 6.832760
H 6.894060 2.365850 7.746510
H 6.910060 2.391580 7.726840
H 6.871730 0.980391 6.707250
H 6.866540 0.985578 6.716250
H 6.749870 2.970960 6.927670
H 6.732810 2.959720 6.958260
H 6.691530 3.963650 7.033380
H 6.663350 3.949390 7.083770
H 7.094450 1.741330 8.798050
H 7.110790 1.786520 8.789630
H 7.128590 0.819517 8.420310
H 7.124770 0.782306 8.409240
H 6.828050 3.569840 8.032790
H 6.858450 3.601790 7.988890
H 6.985840 2.761640 8.660260
H 7.011910 2.804900 8.631730
H 11.182400 2.931880 24.270400
H 10.702900 2.710230 25.160700
H 9.570360 5.891850 25.780200
H 9.574990 5.964970 25.743600
H 11.284400 2.476100 27.060000
H 10.740300 2.543400 26.181800
H 9.581790 4.971010 26.253300
H 9.245530 5.377200 27.339200
H 9.467600 4.448280 27.042900
H 9.442960 4.398620 27.104700
H 9.598310 5.036540 26.201100
H 9.232000 5.335040 27.385100
H 9.295700 6.081650 26.722900
H 9.299220 6.135550 26.689600
H 9.191090 4.328070 28.106400
H 9.217880 4.357840 28.043500
H 8.893650 4.778240 28.989900
H 8.916070 4.789430 28.934900
H 8.957350 5.524850 28.327700
H 8.969760 5.547770 28.285200
H 8.643030 5.627420 29.478000
H 8.630350 5.628520 29.518600
H 9.470440 7.453610 1.343810
H 9.460380 7.501520 1.350280
H 8.255320 7.320500 1.124470
H 8.274710 7.242610 1.095570
H 9.057530 6.707810 0.894494
H 9.094980 6.645200 0.890463
H 10.455700 7.528040 1.498060
H 10.450000 7.551950 1.484770
H 11.036800 6.808670 1.163480
H 10.075600 6.520470 0.908771
H 10.116500 6.481020 0.928308
H 11.065400 6.794060 1.198960
H 7.875430 8.113160 1.488660
H 7.883960 8.194370 1.537090
H 8.873600 8.244800 1.671580
H 8.860660 8.187590 1.642910
H 8.004130 9.023600 1.964410
H 8.042940 9.095270 2.021770
H 9.236110 8.996000 2.096260
H 9.276450 9.038520 2.127370
H 8.626340 9.729980 2.395350
H 11.417100 9.281430 2.498750
H 10.831100 8.336450 1.951410
H 10.852900 8.345670 1.940560
H 9.845890 8.262020 1.797160
H 9.863230 8.295230 1.806070
H 10.266100 9.088950 2.261860
H 10.221300 9.070430 2.250500
H 11.471100 9.269970 2.487670
H 8.689670 9.781800 2.448660
H 9.650850 10.070000 2.703370
H 9.575320 10.043000 2.666010
H 10.668900 9.882660 2.717650
H 10.596800 9.878840 2.703850
H 9.411740 6.914400 25.812400
H 9.403880 6.984820 25.793100
H 9.021040 6.271460 27.665500
H 9.023460 6.306120 27.635600
H 9.084740 7.018070 27.003300
H 9.077150 7.064460 26.985900
H 9.130840 7.822810 26.336300
H 9.148440 7.764680 26.341100
H 8.851000 8.214850 27.224600
H 8.829030 8.254400 27.227600
H 8.810080 7.207880 27.945900
H 8.801390 7.235040 27.931900
H 8.746390 6.461270 28.608100
H 8.747690 6.476690 28.581500
H 8.460300 7.571910 29.077800
H 8.448600 7.575700 29.070100
H 8.471930 6.647260 29.527500
H 8.471730 6.651070 29.550800
H 8.599120 8.144290 28.226300
H 8.579310 8.163950 28.228200
H 6.757960 32.913400 5.655030
H 6.776500 32.928900 5.632730
H 7.068670 32.700200 7.598020
H 7.060540 32.721700 7.622700
H 6.924880 32.551600 6.610540
H 6.941200 32.549400 6.581740
H 12.050200 3.148950 23.749200
H 13.073900 3.303290 23.737000
H 12.852800 3.109050 24.692800
H 11.907100 2.923350 24.959400
H 12.631700 2.914820 25.648500
H 11.686000 2.729110 25.915100
H 13.979000 3.353540 24.237000
H 14.523200 3.286230 25.115200
H 13.577500 3.100520 25.381800
H 12.189600 2.526340 27.559900
H 12.410700 2.720580 26.604200
H 13.213200 2.680680 27.547700
H 13.356400 2.906290 26.337500
H 14.560500 3.119400 26.136200
H 14.081000 2.897760 27.026600
H 11.683500 7.495200 1.590370
H 11.687700 7.500440 1.629900
H 11.816400 8.410880 2.105650
H 11.842500 8.396100 2.075050
H 18.753300 6.688820 1.900770
H 18.705400 6.696690 1.852860
H 18.053800 6.433700 1.181390
H 18.022500 6.427500 1.122800
H 19.662600 6.984080 2.122910
H 19.717100 6.968720 2.154680
H 19.217300 6.730650 0.994471
H 20.183400 6.988640 0.998340
H 20.213600 6.989850 1.019340
H 19.246700 6.735060 1.032190
H 20.687100 7.198400 1.875080
H 20.637700 7.212660 1.860590
H 21.403300 7.316320 1.136900
H 21.369300 7.321190 1.136200
H 18.793000 6.364180 31.010800
H 19.795700 6.545150 30.707900
H 19.763000 6.593860 30.731200
H 18.820700 6.316570 30.970300
H 20.726800 6.873760 30.985100
H 20.753000 6.832540 30.978000
H 17.806200 6.271710 32.748000
H 17.796900 6.248650 32.687000
H 18.076800 6.246260 31.749000
H 18.089000 6.208040 31.694700
H 18.773100 6.526500 32.735100
H 18.763000 6.506630 32.690900
H 19.740100 6.781290 32.722300
H 19.274900 6.540590 31.832500
H 19.266500 6.572730 31.866500
H 20.233400 6.827530 31.853700
H 20.241100 6.798580 31.836400
H 19.729200 6.764620 32.694800
H 20.707000 7.036080 32.709400
H 20.695300 7.022600 32.698600
H 21.673900 7.290870 32.696600
H 21.661500 7.280590 32.702500
H 21.435900 7.101730 31.708100
H 21.426300 7.128890 31.704500
H 24.618500 4.185550 1.990640
H 24.559100 4.208850 1.948190
H 24.464200 4.484820 0.954885
H 24.518400 4.443780 0.993092
H 25.332500 5.377500 0.956470
H 25.304600 5.395310 0.930091
H 25.864700 5.703330 1.699170
H 25.250000 4.949240 1.856360
H 25.211900 4.956090 1.823680
H 25.881500 5.712940 1.722070
H 25.957400 6.142540 0.805581
H 25.964000 6.141200 0.822184
H 26.424700 6.011350 2.468250
H 26.430400 6.048370 2.487670
H 25.003800 4.333330 2.874770
H 25.057000 4.336590 2.916230
H 25.716400 4.856420 3.521850
H 25.679200 4.824900 3.486350
H 25.771900 5.264120 2.592760
H 25.798900 5.284680 2.621960
H 26.404200 5.551840 3.619060
H 26.420100 5.605750 3.645210
H 25.342900 5.820120 32.357600
H 25.325100 5.854810 32.338000
H 24.744600 5.087280 32.719700
H 24.783500 5.042070 32.749500
H 27.170300 7.197810 1.450150
H 27.144400 7.240320 1.453500
H 26.512900 6.476630 1.587790
H 26.517500 6.450570 1.574660
H 27.244500 6.982100 2.451050
H 27.265100 6.921840 2.443460
H 26.984800 6.319380 3.237330
H 26.979400 6.383800 3.253280
H 26.705900 7.089280 33.086600
H 26.046500 6.569460 32.481000
H 26.050200 6.581760 32.470700
H 26.725600 7.073330 33.082200
H 31.006200 4.647650 6.073440
H 30.600900 5.415690 5.433110
H 30.648400 5.361500 5.414520
H 30.949000 4.682690 6.076050
H 31.685000 5.937560 5.136090
H 31.721400 5.913930 5.132620
H 32.623100 5.669870 5.489550
H 31.767200 5.171720 5.773860
H 31.814700 5.158760 5.781500
H 32.585500 5.660760 5.471670
H 32.667700 4.894920 6.109450
H 32.716400 4.914710 6.138420
H 31.735500 4.211760 6.557050
H 31.797300 4.207700 6.575910
H 32.749800 4.129090 6.747220
H 32.809600 4.159540 6.787290
H 32.421100 7.192430 4.196120
H 32.436500 7.180210 4.191810
H 31.474200 6.823680 4.328160
H 30.819700 6.157980 4.775700
H 30.784600 6.214360 4.800500
H 31.450900 6.864690 4.347730
H 32.503300 6.426590 4.833900
H 32.529800 6.425040 4.840680
H 9.021390 28.673400 17.446100
H 8.166000 29.069800 17.873800
H 10.001900 28.785200 17.133300
H 10.844900 29.375200 17.019400
H 7.664990 29.868300 18.302000
H 7.652600 30.854800 18.615700
H 8.827270 29.820000 17.874500
H 9.745250 29.677600 17.504300
H 9.231850 31.462600 18.246200
H 8.570570 30.712500 18.245500
H 9.488550 30.570100 17.875200
H 10.149800 31.320300 17.875900
H 10.406500 30.427800 17.505000
H 11.312100 31.272000 17.448500
H 11.324500 30.285500 17.134700
H 8.132150 31.765000 18.731100
H 8.975140 32.355100 18.617100
H 9.955700 32.466900 18.304300
H 10.811100 32.070400 17.876600
H 0.827034 1.867750 18.133700
H 0.847469 1.840530 18.105700
H 0.808896 0.877841 18.436300
H 0.834677 0.852233 18.413800
H 1.226630 2.820100 18.205700
H 1.235480 2.797560 18.179000
H 1.900620 3.479690 18.632900
H 1.894730 3.466870 18.613900
H 1.529780 1.302690 18.983900
H 1.738650 2.273820 18.868600
H 1.741640 2.260680 18.853900
H 1.541240 1.288020 18.971300
H 2.047390 0.751141 19.646300
H 2.247790 1.723800 19.528900
H 2.250660 1.727540 19.531500
H 2.041790 0.756410 19.646800
H 2.954350 2.159590 20.086500
H 2.971540 2.152390 20.079100
H 2.753950 1.186930 20.203900
H 2.762670 1.181260 20.194400
H 2.459530 2.698670 19.416200
H 2.448190 2.696460 19.411500
H 2.648590 3.669130 19.294100
H 2.668390 3.669800 19.300900
H 3.324240 3.339470 20.030600
H 3.295060 3.350140 20.037100
H 4.170850 5.701740 20.121700
H 5.375290 5.945110 20.283000
H 3.674280 1.587320 20.929200
H 3.648120 1.607070 20.952100
H 3.692420 2.577240 20.626600
H 3.660910 2.595370 20.644000
H 5.853190 5.031400 20.970500
H 4.879050 5.154810 20.642400
H 4.189180 7.405750 19.074800
H 3.918340 6.525640 19.547900
H 5.871530 6.735410 19.923500
H 5.391170 7.420820 19.376300
H 4.894930 6.630530 19.735700
H 4.910810 8.106240 18.829000
H 5.889860 8.439420 18.876600
H 1.200530 32.656100 19.020600
H 1.177080 32.674300 19.032300
H 1.846990 32.337200 19.763700
H 1.832920 32.344000 19.762100
H 2.600850 32.539400 20.443800
H 2.600700 32.534100 20.430100
H 3.274690 33.193700 20.857300
H 3.260110 33.208700 20.878800
H 6.351880 6.050000 20.470800
H 6.832240 5.364580 21.018000
H 7.553870 6.065070 20.772300
H 6.367760 7.525710 19.564100
H 6.848120 6.840290 20.111300
H 7.824720 6.945180 20.299200
H 7.572210 7.769080 19.725400
H 6.864000 8.316010 19.204700
H 4.208070 25.820600 28.921000
H 4.167210 25.853100 28.874200
H 1.713730 27.136100 28.702900
H 1.662950 27.154400 28.686200
H 2.476600 26.705600 28.229800
H 2.529040 26.680300 28.256400
H 1.170300 27.455600 29.545600
H 1.214560 27.444100 29.556000
H 3.442030 26.198800 28.336300
H 3.393220 26.229300 28.298600
H 2.668750 26.654300 29.209900
H 3.514060 26.228100 29.532000
H 3.550830 26.202400 29.570800
H 2.711320 26.632300 29.238500
H 4.591170 25.677900 29.802300
H 4.621900 25.647000 29.854000
H 4.551510 25.750600 30.834200
H 4.572620 25.724500 30.885200
H 1.130640 27.528300 30.577500
H 1.165290 27.521700 30.587200
H 2.015600 27.029300 29.867700
H 2.054080 27.014200 29.888300
H 2.207750 26.978100 30.847800
H 2.236350 26.966200 30.870400
H 3.733110 26.154400 30.552900
H 2.893590 26.584300 30.220600
H 2.860910 26.603100 30.189900
H 3.706210 26.176800 30.512100
H 3.053060 26.551800 31.169900
H 3.075870 26.536300 31.202700
H 4.073460 26.032500 31.738300
H 1.579110 27.348100 31.520200
H 1.554600 27.353100 31.505600
H 2.328590 26.976900 32.081200
H 2.345150 26.969800 32.104900
H 4.058860 26.051700 31.693500
H 3.245210 26.500600 32.150000
H 3.258140 26.488300 32.184800
H 5.403320 10.789000 11.371100
H 5.343080 10.810400 11.397500
H 6.030660 11.566700 11.330300
H 5.744740 11.972100 11.555800
H 4.845380 11.617900 11.812200
H 4.829640 12.615300 12.089600
H 4.839780 12.567300 12.092400
H 5.972090 12.930700 11.727400
H 4.883860 11.575100 11.800100
H 5.748890 12.455800 11.691000
H 6.130650 14.131100 11.991600
H 5.282890 13.499800 12.169500
H 5.300080 13.535100 12.155200
H 6.094460 14.122700 12.010900
H 6.939770 11.455300 10.928900
H 6.189390 10.409100 10.956500
H 6.258960 10.419700 10.920200
H 7.221530 10.566100 10.568300
H 7.157540 10.521500 10.607300
H 6.416740 11.367700 11.128000
H 7.988110 11.117400 10.443700
H 8.033100 11.189000 10.409600
H 7.543450 12.680500 11.043100
H 7.567110 12.233000 10.888200
H 7.316100 11.721900 10.871600
H 6.644090 12.326300 11.299500
H 6.658000 12.344400 11.289600
H 6.871440 13.284900 11.471000
H 7.285340 13.122100 11.248800
H 8.458550 12.037300 10.509300
H 8.476210 12.121500 10.486800
H 8.432140 13.113700 10.779000
H 8.442810 13.034600 10.786700
H 7.945110 13.842100 11.201500
H 7.912680 13.899800 11.208100
H 6.376230 13.233500 11.650200
H 7.057030 14.269100 11.659000
H 7.098790 14.243500 11.642500
H 1.610880 19.201100 7.621940
H 2.231150 20.009700 7.439250
H 1.423820 20.398000 7.883560
H 2.418780 21.026300 7.494670
H 2.123490 21.978600 7.773340
H 0.724151 18.817400 7.993770
H 1.369980 21.382500 8.050600
H 5.824060 22.653700 7.492730
H 5.290040 23.449900 7.101860
H 4.813340 24.359700 7.231550
H 4.521690 25.139400 7.847060
H 1.424390 22.611500 8.200590
H 5.397000 23.662000 8.073250
H 5.503960 23.874100 9.044630
H 5.888130 23.029300 8.672030
H 5.995090 23.241400 9.643420
H 5.012820 24.506700 8.445850
H 4.493240 25.580000 8.783460
H 5.119780 24.718800 9.417240
H 5.610910 24.086100 10.016000
H 4.735610 25.563500 9.789840
H 5.717870 24.298200 10.987400
H 5.183850 25.094400 10.596500
H 6.272310 22.184600 8.299430
H 6.514680 22.168100 9.305810
H 6.486220 22.608700 10.242200
H 6.194570 23.388400 10.857700
H 31.372900 20.546400 9.161050
H 33.229000 19.801900 8.160820
H 31.668200 19.594100 8.882380
H 32.367300 18.961200 8.455130
H 32.421700 20.190200 8.605120
H 33.175200 20.786400 8.327860
H 31.560500 21.563100 9.216460
H 33.121300 21.770900 8.494900
H 32.367800 21.174700 8.772160
H 32.180800 22.371600 9.033770
H 33.067500 22.755300 8.661940
H 5.777710 18.780600 23.361600
H 3.610150 20.588100 23.548500
H 4.218350 19.973200 22.979400
H 5.011730 19.311700 22.911000
H 4.563900 19.886000 23.913700
H 5.343590 19.289700 24.104800
H 4.129780 20.395100 24.656900
H 5.689140 19.202500 25.039200
H 4.909460 19.798800 24.848000
H 4.475340 20.307900 25.591300
H 5.255020 19.711600 25.782400
H 3.350100 20.991400 24.465800
H 3.507880 21.075200 25.485500
H 4.807190 20.286000 26.785100
H 5.600580 19.624400 26.716700
H 4.041210 20.817000 26.334500
H 6.311040 18.522400 24.210600
H 6.468820 18.606200 25.230300
H 6.208780 19.009600 26.147600
H 5.080570 16.898300 1.473080
H 6.059080 16.395800 31.426000
H 5.855730 16.917700 33.065000
H 4.957210 16.479600 33.093000
H 5.315370 16.295700 32.139200
H 5.652380 17.439600 2.145280
H 6.989060 16.753100 31.144400
H 6.406660 16.875700 32.231500
H 7.449420 18.315700 2.089240
H 6.519440 17.958400 2.370820
H 7.101830 17.835700 1.283760
H 6.203320 17.397700 1.311780
H 8.193130 18.415800 1.376020
H 7.856120 17.271900 31.370000
H 7.652770 17.793800 33.008900
H 6.754250 17.355700 33.037000
H 7.305180 17.313800 32.203500