LAMMPS (3 Mar 2020)
OMP_NUM_THREADS environment is not set. Defaulting to 1 thread. (src/comm.cpp:94)
  using 1 OpenMP thread(s) per MPI task
Reading restart file ...
  restart file = 3 Mar 2020, LAMMPS = 3 Mar 2020
  restoring atom style full from restart
  orthogonal box = (0.734121 0.734121 0.734121) to (33.2659 33.2659 33.2659)
  6 by 6 by 6 MPI processor grid
  restoring pair style hybrid/overlay from restart
  restoring bond style fene from restart
  27950 atoms
  8700 bonds
Finding 1-2 1-3 1-4 neighbors ...
  special bond factors lj:   0          1          1         
  special bond factors coul: 0          1          1         
  2 = max # of 1-2 neighbors
  6 = max # of special neighbors
  special bonds CPU = 2.45773 secs
  read_restart CPU = 2.60646 secs
Resetting global fix info from restart file:
  fix style: nvt, fix ID: pt
50 rigid bodies with 950 atoms
Resetting global fix info from restart file:
  fix style: rigid/nvt, fix ID: ri
System init for write_data ...
PPPM initialization ...
  using 12-bit tables for long-range coulomb (src/kspace.cpp:332)
  G vector (1/distance) = 1.11672
  grid = 81 81 81
  stencil order = 5
  estimated absolute RMS force accuracy = 0.000130558
  estimated relative force accuracy = 0.000130558
  using double precision FFTW3
  3d grid and FFT values/proc = 6859 2835
All restart file global fix info was re-assigned
Unused restart file peratom fix info:
  fix style: STORE, fix ID: par_COMPUTE_STORE
WARNING: Neighbor exclusions used with KSpace solver may give inconsistent Coulombic energies (src/neighbor.cpp:486)
Neighbor list info ...
  update every 1 steps, delay 0 steps, check yes
  max neighbors/atom: 2000, page size: 100000
  master list distance cutoff = 2.8
  ghost atom cutoff = 2.8
  binsize = 1.4, bins = 24 24 24
  2 neighbor lists, perpetual/occasional/extra = 2 0 0
  (1) pair lj/cut, perpetual
      attributes: half, newton on
      pair build: half/bin/newton
      stencil: half/bin/3d/newton
      bin: standard
  (2) pair coul/long, perpetual, skip from (1)
      attributes: half, newton on
      pair build: skip
      stencil: none
      bin: none
PPPM initialization ...
  using 12-bit tables for long-range coulomb (src/kspace.cpp:332)
  G vector (1/distance) = 1.11672
  grid = 81 81 81
  stencil order = 5
  estimated absolute RMS force accuracy = 0.000130558
  estimated relative force accuracy = 0.000130558
  using double precision FFTW3
  3d grid and FFT values/proc = 6859 2835
WARNING: Neighbor exclusions used with KSpace solver may give inconsistent Coulombic energies (src/neighbor.cpp:486)
Neighbor list info ...
  update every 1 steps, delay 0 steps, check yes
  max neighbors/atom: 2000, page size: 100000
  master list distance cutoff = 2.8
  ghost atom cutoff = 2.8
  binsize = 1.4, bins = 24 24 24
  2 neighbor lists, perpetual/occasional/extra = 2 0 0
  (1) pair lj/cut, perpetual
      attributes: half, newton on
      pair build: half/bin/newton
      stencil: half/bin/3d/newton
      bin: standard
  (2) pair coul/long, perpetual, skip from (1)
      attributes: half, newton on
      pair build: skip
      stencil: none
      bin: none
Setting up Verlet run ...
  Unit style    : lj
  Current step  : 12000000
  Time step     : 0.005
Per MPI rank memory allocation (min/avg/max) = 10.01 | 10.05 | 10.19 Mbytes
Step Temp Press Volume 
12000000   0.79998952 -0.070903121    34428.857 
12010000   0.79889005  -0.13283382    34428.857 
12020000    0.8033713 -0.090083145    34428.857 
12030000    0.7965469 -0.080617081    34428.857 
12040000   0.80182469  -0.13250412    34428.857 
12050000   0.80471886  -0.18851418    34428.857 
12060000   0.80672624  -0.10246343    34428.857 
12070000   0.80238036  -0.13292371    34428.857 
12080000   0.80681256 -0.084282582    34428.857 
12090000    0.8009232  -0.10869957    34428.857 
12100000   0.80035053  -0.18298855    34428.857 
12110000   0.79392095  -0.17661005    34428.857 
12120000   0.80301405 -0.093645889    34428.857 
12130000   0.79519026  -0.14055043    34428.857 
12140000   0.79928569  -0.12346384    34428.857 
12150000   0.79411098  -0.19414083    34428.857 
12160000   0.79839353 -0.092012843    34428.857 
12170000   0.80314519 -0.084071851    34428.857 
12180000   0.80544543 -0.098896412    34428.857 
12190000   0.80090107  -0.13351633    34428.857 
12200000   0.79493105  -0.13550618    34428.857 
12210000    0.8017799  -0.15662197    34428.857 
12220000   0.79632166  -0.12504738    34428.857 
12230000    0.7946153  -0.12861768    34428.857 
12240000   0.79950339  -0.20098757    34428.857 
12250000   0.80554667 -0.099567006    34428.857 
12260000    0.8013579  -0.15798724    34428.857 
12270000   0.80401208 -0.067233042    34428.857 
12280000   0.80165102  -0.14197293    34428.857 
12290000   0.79767975   -0.1598967    34428.857 
12300000    0.8090975 -0.097717674    34428.857 
12310000     0.793416  -0.16766064    34428.857 
12320000    0.8037237  -0.14592888    34428.857 
12330000    0.7982613 -0.067831737    34428.857 
12340000   0.79869591  -0.19405575    34428.857 
12350000   0.79332244  -0.13495428    34428.857 
12360000   0.79600754  -0.12678098    34428.857 
12370000   0.79470196  -0.13699552    34428.857 
12380000   0.79778331  -0.12718566    34428.857 
12390000   0.79881373  -0.15601948    34428.857 
12400000   0.80278222  -0.16591046    34428.857 
12410000   0.79392056  -0.18732319    34428.857 
12420000   0.80345599  -0.19053765    34428.857 
12430000   0.79648054   -0.1543283    34428.857 
12440000   0.79725234  -0.15509472    34428.857 
12450000   0.80289385 -0.045077172    34428.857 
12460000     0.807418  -0.11281489    34428.857 
12470000    0.7959926  -0.10350748    34428.857 
12480000   0.79648601  -0.17154307    34428.857 
12490000   0.79620742  -0.12014544    34428.857 
12500000    0.7995473  -0.04915167    34428.857 
12510000   0.80341316  -0.14494614    34428.857 
12520000   0.79813361  -0.11231497    34428.857 
12530000    0.8015857  -0.09956632    34428.857 
12540000   0.79800686 -0.053780372    34428.857 
12550000   0.80163906  -0.12234285    34428.857 
12560000    0.7995661    -0.151327    34428.857 
12570000   0.80538102 -0.073552283    34428.857 
12580000   0.80405126  -0.16259364    34428.857 
12590000     0.799433 -0.086124167    34428.857 
12600000   0.80021053 -0.025997349    34428.857 
12610000   0.80226144  -0.16080804    34428.857 
12620000    0.8022646  -0.13048137    34428.857 
12630000   0.79608148   -0.1128745    34428.857 
12640000   0.80478163  -0.15208415    34428.857 
12650000   0.80019613  -0.12127311    34428.857 
12660000   0.79804369  -0.15181896    34428.857 
12670000   0.79734702  -0.12918297    34428.857 
12680000   0.80491851  -0.12673142    34428.857 
12690000     0.797764  -0.14460985    34428.857 
12700000    0.8018668  -0.14665545    34428.857 
12710000    0.7938783  -0.11856669    34428.857 
12720000   0.80181699  -0.20249478    34428.857 
12730000   0.79917862   -0.1910992    34428.857 
12740000   0.80373637 -0.076319006    34428.857 
12750000   0.79851979   -0.1380477    34428.857 
12760000   0.79505289  -0.15208609    34428.857 
12770000   0.81196456  -0.17933141    34428.857 
12780000   0.80349705  -0.15162898    34428.857 
12790000   0.79922155  -0.14535065    34428.857 
12800000   0.79967666 -0.058497523    34428.857 
12810000   0.80449168  -0.13410733    34428.857 
12820000   0.80369272  -0.10099304    34428.857 
12830000   0.80155771  -0.14928083    34428.857 
12840000   0.79755669  -0.14703307    34428.857 
12850000   0.79798687  -0.14333309    34428.857 
12860000   0.79802802  -0.14448344    34428.857 
12870000   0.79869476  -0.11913616    34428.857 
12880000   0.80202324  -0.10160184    34428.857 
12890000   0.80476536  -0.14089289    34428.857 
12900000   0.79601292   -0.1223619    34428.857 
12910000   0.80392045 -0.097698082    34428.857 
12920000    0.7970743  -0.17988575    34428.857 
12930000   0.80142708  -0.10080558    34428.857 
12940000   0.79970718  -0.14390312    34428.857 
12950000   0.79991874 -0.049837739    34428.857 
12960000   0.79701251  -0.16909273    34428.857 
12970000   0.80011679  -0.13293787    34428.857 
12980000   0.79890678 -0.077192087    34428.857 
12990000   0.80642421    -0.130416    34428.857 
13000000   0.80446895  -0.13118774    34428.857 
Loop time of 8469.64 on 216 procs for 1000000 steps with 27950 atoms

Performance: 51005.731 tau/day, 118.069 timesteps/s
99.8% CPU use with 216 MPI tasks x 1 OpenMP threads

MPI task timing breakdown:
Section |  min time  |  avg time  |  max time  |%varavg| %total
---------------------------------------------------------------
Pair    | 89.56      | 107.45     | 138.91     |  88.9 |  1.27
Bond    | 1.2027     | 1.8238     | 2.4525     |  15.6 |  0.02
Kspace  | 7150.5     | 7330.2     | 7437.8     |  65.1 | 86.55
Neigh   | 114.87     | 121.39     | 127.68     |  24.7 |  1.43
Comm    | 293.96     | 380.92     | 552.51     | 254.9 |  4.50
Output  | 0.016422   | 0.020868   | 0.032033   |   1.2 |  0.00
Modify  | 343.83     | 403.65     | 456.7      | 134.2 |  4.77
Other   |            | 124.2      |            |       |  1.47

Nlocal:    129.398 ave 175 max 105 min
Histogram: 2 13 75 59 41 12 5 5 3 1
Nghost:    958.324 ave 1077 max 904 min
Histogram: 13 37 52 61 24 17 5 5 1 1
Neighs:    4739.25 ave 7924 max 3420 min
Histogram: 5 47 84 47 12 11 6 2 1 1

Total # of neighbors = 1023679
Ave neighs/atom = 36.6254
Ave special neighs/atom = 0.62254
Neighbor list builds = 134484
Dangerous builds = 0
PPPM initialization ...
  using 12-bit tables for long-range coulomb (src/kspace.cpp:332)
  G vector (1/distance) = 1.11672
  grid = 81 81 81
  stencil order = 5
  estimated absolute RMS force accuracy = 0.000130558
  estimated relative force accuracy = 0.000130558
  using double precision FFTW3
  3d grid and FFT values/proc = 6859 2835
WARNING: Neighbor exclusions used with KSpace solver may give inconsistent Coulombic energies (src/neighbor.cpp:486)
Neighbor list info ...
  update every 1 steps, delay 0 steps, check yes
  max neighbors/atom: 2000, page size: 100000
  master list distance cutoff = 2.8
  ghost atom cutoff = 2.8
  binsize = 1.4, bins = 24 24 24
  12 neighbor lists, perpetual/occasional/extra = 2 10 0
  (1) pair lj/cut, perpetual
      attributes: half, newton on
      pair build: half/bin/newton
      stencil: half/bin/3d/newton
      bin: standard
  (2) pair coul/long, perpetual, skip from (1)
      attributes: half, newton on
      pair build: skip
      stencil: none
      bin: none
  (3) compute rdf, occasional, copy from (1)
      attributes: half, newton on
      pair build: copy
      stencil: none
      bin: none
  (4) compute rdf, occasional, copy from (1)
      attributes: half, newton on
      pair build: copy
      stencil: none
      bin: none
  (5) compute rdf, occasional, copy from (1)
      attributes: half, newton on
      pair build: copy
      stencil: none
      bin: none
  (6) compute rdf, occasional, copy from (1)
      attributes: half, newton on
      pair build: copy
      stencil: none
      bin: none
  (7) compute rdf, occasional, copy from (1)
      attributes: half, newton on
      pair build: copy
      stencil: none
      bin: none
  (8) compute rdf, occasional, copy from (1)
      attributes: half, newton on
      pair build: copy
      stencil: none
      bin: none
  (9) compute rdf, occasional, copy from (1)
      attributes: half, newton on
      pair build: copy
      stencil: none
      bin: none
  (10) compute rdf, occasional, copy from (1)
      attributes: half, newton on
      pair build: copy
      stencil: none
      bin: none
  (11) compute rdf, occasional, copy from (1)
      attributes: half, newton on
      pair build: copy
      stencil: none
      bin: none
  (12) compute rdf, occasional, copy from (1)
      attributes: half, newton on
      pair build: copy
      stencil: none
      bin: none
Setting up Verlet run ...
  Unit style    : lj
  Current step  : 0
  Time step     : 0.005
WARNING: One or more chunks do not contain all atoms in molecule (src/compute_chunk_atom.cpp:1163)
Per MPI rank memory allocation (min/avg/max) = 17.69 | 19.08 | 19.74 Mbytes
Step Temp Press PotEng KinEng E_pair E_bond TotEng 
       0   0.80446895  -0.21073172      1.69261    1.1699627   -4.7244148    6.4170249    2.8625727 
   10000   0.79370816  -0.13958622    1.6814229    1.1543129   -4.7310933    6.4125162    2.8357358 
   20000   0.79631246  -0.15780687     1.692065    1.1581004   -4.7199754    6.4120405    2.8501655 
   30000   0.79953975 -0.081654462    1.6915304     1.162794   -4.7203523    6.4118827    2.8543243 
   40000   0.80885162  -0.15894004    1.6878748    1.1763365   -4.7236775    6.4115523    2.8642113 
   50000   0.79771232  -0.12864012     1.693362    1.1601363   -4.7183386    6.4117006    2.8534983 
   60000    0.8031894   -0.1160841    1.7012515    1.1681018   -4.7154561    6.4167076    2.8693533 
   70000    0.8021374  -0.16883011    1.6917402    1.1665718   -4.7248131    6.4165532     2.858312 
   80000   0.80546763  -0.11146931    1.6998235    1.1714151   -4.7146182    6.4144417    2.8712385 
   90000   0.80193185  -0.14989375    1.6928257    1.1662729   -4.7230802     6.415906    2.8590986 
  100000    0.7942286  -0.13314738    1.6892091    1.1550698   -4.7228292    6.4120383    2.8442789 
  110000   0.79842324  -0.11566511    1.6967218    1.1611702   -4.7187757    6.4154974     2.857892 
  120000   0.80309592  -0.17130636    1.6875051    1.1679658   -4.7262238     6.413729    2.8554709 
  130000   0.80403726  -0.15448682    1.6881831    1.1693348    -4.723902    6.4120851    2.8575179 
  140000   0.80268214 -0.067322454    1.6970994     1.167364   -4.7166441    6.4137434    2.8644634 
  150000   0.79836832   -0.1083936    1.6989645    1.1610903   -4.7175545     6.416519    2.8600548 
  160000   0.80046892  -0.16891265    1.6862776    1.1641453    -4.728663    6.4149406    2.8504228 
  170000   0.80544354 -0.092731459    1.6925255      1.17138   -4.7215366    6.4140621    2.8639055 
  180000   0.79664815 -0.064793256     1.696918    1.1585886   -4.7159216    6.4128396    2.8555066 
  190000   0.79685261  -0.14155836    1.6982828     1.158886    -4.713261    6.4115437    2.8571687 
  200000   0.79812376 -0.089895823    1.6933299    1.1607347   -4.7227751     6.416105    2.8540646 
  210000   0.80512478  -0.14978093    1.6885122    1.1709165   -4.7246937    6.4132059    2.8594286 
  220000    0.8032149  -0.14680743    1.6869294    1.1681389   -4.7230636     6.409993    2.8550682 
  230000   0.79428585  -0.18063287    1.6809329    1.1551531   -4.7312626    6.4121955     2.836086 
  240000    0.7929424  -0.13162917    1.6886472    1.1531993   -4.7250966    6.4137439    2.8418465 
  250000   0.79543647  -0.15187617    1.6937306    1.1568265   -4.7208863    6.4146169    2.8505571 
  260000   0.80580784  -0.13331559    1.6886831    1.1719098   -4.7256639     6.414347     2.860593 
  270000   0.79533315  -0.12063293    1.6934687    1.1566762    -4.720613    6.4140816    2.8501448 
  280000   0.79994433  -0.10798689    1.6943339    1.1633824   -4.7189774    6.4133112    2.8577162 
  290000   0.79918932  -0.15929347    1.6928963    1.1622843   -4.7222125    6.4151088    2.8551807 
  300000   0.80419721  -0.14805994    1.6922685    1.1695675   -4.7233546     6.415623    2.8618359 
  310000   0.80257792  -0.15364095    1.6934245    1.1672125   -4.7207854    6.4142099     2.860637 
  320000   0.79998073  -0.13756531     1.697855    1.1634353   -4.7173402    6.4151952    2.8612903 
  330000   0.79913297  -0.12106247    1.7019595    1.1622024   -4.7153534    6.4173128    2.8641618 
  340000   0.79873482  -0.14002876    1.6958737    1.1616233    -4.717831    6.4137047     2.857497 
  350000   0.80535092   -0.1400177    1.6924423    1.1712453   -4.7203553    6.4127975    2.8636876 
  360000   0.79653935   -0.1463733    1.6963847    1.1584304   -4.7186389    6.4150236    2.8548151 
  370000   0.79555577  -0.12595191     1.695096        1.157   -4.7216212    6.4167172     2.852096 
  380000    0.7991258 -0.084330443    1.6998796    1.1621919   -4.7157588    6.4156384    2.8620715 
  390000   0.79809216  -0.10901929     1.701153    1.1606887   -4.7117092    6.4128622    2.8618417 
  400000   0.79847039  -0.13306051    1.6953976    1.1612388   -4.7189187    6.4143163    2.8566363 
  410000   0.79683469  -0.11199458    1.6884522    1.1588599   -4.7221741    6.4106263    2.8473121 
  420000    0.8004402  -0.14962821    1.6990069    1.1641035   -4.7175352    6.4165421    2.8631104 
  430000   0.79678171  -0.17306632    1.6926698    1.1587829   -4.7212538    6.4139236    2.8514527 
  440000   0.80531001  -0.12720799    1.6939907    1.1711858   -4.7185981    6.4125888    2.8651765 
  450000   0.79490329  -0.15619559    1.6910019     1.156051   -4.7221458    6.4131477     2.847053 
  460000   0.79684674  -0.11871867    1.6941336    1.1588775   -4.7229456    6.4170792    2.8530111 
  470000   0.80065556  -0.13513347    1.6937145    1.1644167   -4.7201275    6.4138421    2.8581313 
  480000   0.80238263  -0.13042598    1.6993716    1.1669285   -4.7179916    6.4173631       2.8663 
  490000   0.79381802  -0.14649503    1.6973274    1.1544727   -4.7164152    6.4137426    2.8518001 
  500000   0.80084076  -0.19209343    1.6893828    1.1646861   -4.7260151     6.415398    2.8540689 
  510000   0.79911643   -0.1481841    1.7005563    1.1621783   -4.7149688    6.4155251    2.8627346 
  520000    0.7969462  -0.19792091    1.6887794    1.1590221   -4.7256151    6.4143945    2.8478015 
  530000   0.80504048   -0.1559786    1.6887832    1.1707938   -4.7238889    6.4126721     2.859577 
  540000   0.80718396 -0.073538532    1.6972808    1.1739112   -4.7186561    6.4159369     2.871192 
  550000    0.7957405   -0.1291789    1.6902216    1.1572686   -4.7233564     6.413578    2.8474902 
  560000   0.80427428  -0.13447348    1.6803609    1.1696795   -4.7334035    6.4137644    2.8500404 
  570000   0.79486486  -0.11214819    1.6916607    1.1559951   -4.7231143     6.414775    2.8476559 
  580000   0.79829771  -0.15312041    1.6917111    1.1609876   -4.7213996    6.4131107    2.8526987 
  590000   0.80201298 -0.064700447    1.7007451    1.1663909   -4.7145245    6.4152696     2.867136 
  600000   0.80166231  -0.12332147    1.6955476    1.1658809   -4.7184026    6.4139502    2.8614285 
  610000   0.80427509  -0.13013351    1.6896198    1.1696807   -4.7257537    6.4153735    2.8593005 
  620000     0.802325  -0.12884875    1.6897937    1.1668446   -4.7228364    6.4126301    2.8566383 
  630000   0.79403428  -0.13491404    1.6904794    1.1547872   -4.7259932    6.4164727    2.8452666 
  640000    0.8069269  -0.10999369    1.6969598    1.1735373   -4.7199357    6.4168955    2.8704971 
  650000   0.80325467  -0.11904173    1.7028288    1.1681967    -4.712572    6.4154008    2.8710255 
  660000   0.80465154  -0.11384636    1.6988214    1.1702282   -4.7150523    6.4138737    2.8690496 
  670000   0.80439429  -0.09750709    1.6988238    1.1698541   -4.7169301    6.4157539    2.8686779 
  680000   0.79631782    -0.117578    1.6878016    1.1581082   -4.7240867    6.4118883    2.8459098 
  690000   0.80023659  -0.10763522     1.700276    1.1638074   -4.7150425    6.4153185    2.8640834 
  700000   0.79751572   -0.1877545     1.694662    1.1598504   -4.7213453    6.4160073    2.8545124 
  710000   0.80125276  -0.11060606    1.6974022    1.1652852   -4.7139872    6.4113894    2.8626875 
  720000   0.80622253  -0.15342643    1.6905943    1.1725129   -4.7228084    6.4134027    2.8631072 
  730000   0.80397523  -0.15214503    1.6875372    1.1692446   -4.7230011    6.4105383    2.8567818 
  740000   0.80059846  -0.10864647    1.6935768    1.1643337   -4.7239588    6.4175356    2.8579104 
  750000   0.79455857  -0.17564157    1.6927024    1.1555497   -4.7215179    6.4142203    2.8482521 
  760000   0.80221401  -0.18356921     1.688797    1.1666832   -4.7285439    6.4173409    2.8554802 
  770000   0.79635452  -0.15951622    1.6862691    1.1581616   -4.7295509      6.41582    2.8444307 
  780000   0.79923442  -0.19313556    1.6935551    1.1623499   -4.7199522    6.4135073     2.855905 
  790000   0.79594813  -0.15970297    1.6880374    1.1575706   -4.7231568    6.4111942    2.8456079 
  800000   0.81133782   -0.1847182    1.6949917    1.1799523   -4.7195501    6.4145418    2.8749439 
  810000   0.80047036   -0.1412197    1.6848957    1.1641474   -4.7290192    6.4139149     2.849043 
  820000   0.79879083  -0.13550244    1.6898443    1.1617048   -4.7237046    6.4135489    2.8515491 
  830000   0.80451299  -0.14068492    1.6861168    1.1700267   -4.7252277    6.4113445    2.8561435 
  840000   0.80156061  -0.14611137    1.6937185     1.165733   -4.7203933    6.4141118    2.8594515 
  850000   0.79714782  -0.13524606    1.6953552    1.1593153   -4.7174069    6.4127621    2.8546705 
  860000   0.79214387  -0.13766817    1.6949776    1.1520379   -4.7179855     6.412963    2.8470155 
  870000   0.79856756 -0.086033717    1.6868439    1.1613801   -4.7264844    6.4133283     2.848224 
  880000   0.79622673  -0.20731938    1.6851325    1.1579757    -4.730255    6.4153874    2.8431082 
  890000   0.79931784  -0.15257198    1.6924245    1.1624712   -4.7203595    6.4127841    2.8548957 
  900000   0.80154355  -0.14442463    1.6898758    1.1657082   -4.7219656    6.4118414     2.855584 
  910000    0.8031297  -0.14868533    1.6955427    1.1680149   -4.7191306    6.4146733    2.8635576 
  920000   0.79647444  -0.13267961    1.6941167     1.158336   -4.7189371    6.4130538    2.8524528 
  930000   0.80197748 -0.076316052    1.6957779    1.1663392   -4.7175217    6.4132995    2.8621171 
  940000   0.79890055 -0.075596469    1.6947885    1.1618644   -4.7189158    6.4137043    2.8566529 
  950000   0.79121758  -0.15117384    1.6897313    1.1506908   -4.7259212    6.4156525    2.8404221 
  960000   0.80084967  -0.16111416    1.6922753     1.164699   -4.7210341    6.4133094    2.8569743 
  970000   0.79749607 -0.075623926    1.6993874    1.1598218   -4.7120747    6.4114621    2.8592092 
  980000   0.79825027  -0.15946785    1.6928419    1.1609186   -4.7205175    6.4133594    2.8537605 
  990000    0.7990458  -0.12488691    1.6952033    1.1620756   -4.7198358    6.4150391    2.8572789 
 1000000    0.8013094  -0.18360073    1.6891074    1.1653676   -4.7290164    6.4181238    2.8544751 
 1010000   0.81180602  -0.10282054    1.7026319    1.1806332   -4.7135565    6.4161884    2.8832651 
 1020000   0.79928095  -0.14236135    1.6923446    1.1624176   -4.7194859    6.4118304    2.8547621 
 1030000   0.80469135  -0.10057904    1.6967686    1.1702861   -4.7158495    6.4126181    2.8670547 
 1040000   0.79710423  -0.13414631    1.6862955    1.1592519   -4.7252803    6.4115757    2.8455474 
 1050000   0.79792619  -0.18479072    1.6927165    1.1604473   -4.7215561    6.4142726    2.8531638 
 1060000   0.79955374  -0.15069046    1.6892942    1.1628143   -4.7200153    6.4093095    2.8521085 
 1070000   0.79586938  -0.11525528      1.69977     1.157456   -4.7179016    6.4176715     2.857226 
 1080000   0.79605335  -0.14955382     1.693579    1.1577236    -4.721084     6.414663    2.8513026 
 1090000   0.80377056  -0.15032889     1.691085     1.168947   -4.7192473    6.4103323    2.8600319 
 1100000   0.80511653 -0.095116007    1.6946869    1.1709045   -4.7178103    6.4124972    2.8655914 
 1110000   0.79344678  -0.17408781    1.6914797    1.1539328   -4.7240684    6.4155481    2.8454125 
 1120000   0.79930063  -0.10539563    1.6900336    1.1624462   -4.7216467    6.4116804    2.8524799 
 1130000   0.80750829 -0.086907413    1.7066515    1.1743829   -4.7115738    6.4182254    2.8810344 
 1140000   0.80296631  -0.13337823    1.6936513    1.1677773   -4.7226511    6.4163024    2.8614286 
 1150000   0.80319928  -0.13412125    1.6919844    1.1681161   -4.7202795     6.412264    2.8601006 
 1160000   0.79578718 -0.050512032      1.69939    1.1573365   -4.7154955    6.4148855    2.8567265 
 1170000   0.79976839 -0.063116265    1.6993333    1.1631265   -4.7166387     6.415972    2.8624598 
 1180000   0.79521402  -0.10934179     1.693067    1.1565029   -4.7215225    6.4145895    2.8495699 
 1190000   0.79607144  -0.12850179    1.6923335    1.1577499   -4.7214603    6.4137938    2.8500834 
 1200000    0.8043362  -0.14642734    1.6899322    1.1697696   -4.7220763    6.4120086    2.8597018 
 1210000    0.8026241    -0.150471    1.6931712    1.1672796   -4.7215648     6.414736    2.8604509 
 1220000   0.79425541  -0.11374827    1.6936684    1.1551088    -4.722589    6.4162574    2.8487772 
 1230000   0.80004652  -0.18858822    1.6889927     1.163531   -4.7226339    6.4116266    2.8525237 
 1240000   0.79545021 -0.077235491    1.7003013    1.1568464   -4.7141105    6.4144119    2.8571478 
 1250000   0.80448036  -0.12691731    1.6901137    1.1699792   -4.7263291    6.4164428    2.8600929 
 1260000   0.80282934  -0.16603451     1.696532    1.1675781   -4.7159747    6.4125067    2.8641101 
 1270000   0.79879644  -0.13388202    1.6900511     1.161713   -4.7255471    6.4155982    2.8517641 
 1280000   0.79695921  -0.10577314    1.6970885     1.159041   -4.7174351    6.4145236    2.8561295 
 1290000   0.80130193  -0.11296494    1.6943489    1.1653568   -4.7168132    6.4111621    2.8597057 
 1300000   0.79753629  -0.13794683    1.6976029    1.1598803   -4.7173589    6.4149618    2.8574832 
 1310000   0.80284993 -0.094774792    1.6991745    1.1676081   -4.7187776    6.4179521    2.8667826 
 1320000   0.80407927  -0.12090768    1.7032843    1.1693959   -4.7118393    6.4151236    2.8726803 
 1330000   0.79894638 -0.098312889    1.6949609     1.161931   -4.7203448    6.4153057    2.8568919 
 1340000    0.8000949 -0.090357052    1.6976397    1.1636013   -4.7136401    6.4112798     2.861241 
 1350000   0.79674301  -0.12671884    1.6957243    1.1587266   -4.7220168    6.4177411    2.8544509 
 1360000   0.79797052 -0.079760663    1.7043074    1.1605118   -4.7109005    6.4152079    2.8648192 
 1370000   0.79499057  -0.16082276    1.6917254     1.156178   -4.7222344    6.4139598    2.8479033 
 1380000   0.80384415  -0.10735735     1.688347     1.169054   -4.7232924    6.4116394     2.857401 
 1390000   0.80089784  -0.15519396    1.7010205    1.1647691   -4.7132142    6.4142347    2.8657895 
 1400000   0.80371862  -0.20564378    1.6887907    1.1688714   -4.7250916    6.4138823    2.8576621 
 1410000   0.79288729 -0.086940075    1.6940662    1.1531191   -4.7184659    6.4125321    2.8471853 
 1420000   0.80067139   -0.1749313    1.6945296    1.1644397   -4.7203481    6.4148777    2.8589693 
 1430000   0.80217306  -0.11175927    1.6969509    1.1666237   -4.7199938    6.4169447    2.8635745 
 1440000   0.80398705  -0.17224398    1.6800603    1.1692618   -4.7295711    6.4096314    2.8493221 
 1450000   0.79589709 -0.074759386    1.6966575    1.1574963   -4.7160446    6.4127021    2.8541539 
 1460000    0.8074397 -0.089420076    1.6978401    1.1742831   -4.7162583    6.4140984    2.8721232 
 1470000   0.80560103  -0.10350619    1.6907979    1.1716091   -4.7205038    6.4113017    2.8624069 
 1480000   0.79955119  -0.19210439    1.6919543    1.1628106   -4.7205482    6.4125024    2.8547649 
 1490000   0.80351705 -0.080501866    1.7002009    1.1685783   -4.7159675    6.4161684    2.8687791 
 1500000   0.79541346  -0.17937798     1.687217     1.156793   -4.7259423    6.4131594      2.84401 
 1510000   0.79012528 -0.093798282    1.7029973    1.1491022   -4.7143297     6.417327    2.8520995 
 1520000   0.80065297 -0.083746884    1.6999521     1.164413   -4.7135056    6.4134578    2.8643651 
 1530000   0.80012094  -0.13277585     1.689486    1.1636392   -4.7254788    6.4149648    2.8531252 
 1540000   0.80379839  -0.15473409    1.6960766    1.1689874   -4.7197069    6.4157834     2.865064 
 1550000   0.79962074  -0.10014361    1.6925508    1.1629118   -4.7200728    6.4126236    2.8554625 
 1560000   0.79476016  -0.13551302    1.6905629    1.1558429   -4.7241042    6.4146671    2.8464058 
 1570000   0.79586769  -0.13219937    1.6903361    1.1574536   -4.7218064    6.4121424    2.8477896 
 1580000   0.79629075 -0.078560006    1.6894125    1.1580689   -4.7242875       6.4137    2.8474813 
 1590000   0.80097984  -0.10425638    1.6947817    1.1648883   -4.7199963    6.4147779      2.85967 
 1600000   0.79677814  -0.12413237    1.6896444    1.1587777   -4.7237351    6.4133796    2.8484221 
 1610000   0.79284093 -0.071933695     1.697679    1.1530517   -4.7148101    6.4124891    2.8507307 
 1620000   0.80164591  -0.12835021    1.6915365     1.165857   -4.7243108    6.4158473    2.8573935 
 1630000   0.80438054  -0.13562227    1.6862467    1.1698341   -4.7283852    6.4146319    2.8560808 
 1640000   0.79859076   -0.1173142    1.6877073    1.1614138   -4.7241319    6.4118392    2.8491211 
 1650000   0.79841696  -0.13332861    1.6928062    1.1611611   -4.7234247    6.4162309    2.8539673 
 1660000   0.79784355  -0.18584522    1.6903221    1.1603271   -4.7243148    6.4146369    2.8506493 
 1670000   0.79907286 -0.081096235    1.6953565     1.162115   -4.7158309    6.4111874    2.8574715 
 1680000   0.79950677   -0.1874367    1.6827844     1.162746   -4.7294046     6.412189    2.8455304 
 1690000   0.80403918 -0.084884699     1.698195    1.1693376   -4.7176237    6.4158187    2.8675326 
 1700000   0.80247203  -0.14602491    1.6984937    1.1670585   -4.7151096    6.4136033    2.8655522 
 1710000   0.79636192  -0.15905094    1.6928365    1.1581724   -4.7207106    6.4135471    2.8510088 
 1720000   0.80154776  -0.18041316    1.6871205    1.1657143   -4.7267743    6.4138948    2.8528348 
 1730000   0.79888737  -0.16369917    1.6833692    1.1618452   -4.7283578     6.411727    2.8452144 
 1740000   0.79457104  -0.13396337    1.6944899    1.1555678   -4.7206431     6.415133    2.8500577 
 1750000   0.80446804 -0.067602627    1.7019282    1.1699613   -4.7140843    6.4160125    2.8718895 
 1760000   0.79851078  -0.13500757    1.6823174    1.1612975   -4.7310002    6.4133176    2.8436149 
 1770000   0.80280688 -0.061926925    1.6928062    1.1675454   -4.7184854    6.4112916    2.8603517 
 1780000   0.80156848  -0.12677262    1.6921995    1.1657444   -4.7219836    6.4141831    2.8579439 
 1790000   0.79896659  -0.12032422     1.702145    1.1619604   -4.7135723    6.4157174    2.8641055 
 1800000   0.79989868  -0.13492127    1.6923688     1.163316   -4.7217135    6.4140823    2.8556848 
 1810000   0.79391162 -0.098349477    1.6961221    1.1546088   -4.7194784    6.4156005     2.850731 
 1820000   0.80118399  -0.12986036    1.6930029    1.1651852   -4.7221764    6.4151793    2.8581882 
 1830000   0.79286868  -0.15403103    1.6874897     1.153092   -4.7258845    6.4133742    2.8405817 
 1840000   0.80159283  -0.12250427    1.6962099    1.1657798   -4.7187548    6.4149646    2.8619897 
 1850000   0.80273765  -0.10235955    1.6949414    1.1674448   -4.7197337    6.4146751    2.8623862 
 1860000   0.79774409  -0.13906131    1.6886758    1.1601825   -4.7238662    6.4125421    2.8488583 
 1870000   0.80119524  -0.16216854    1.6893965    1.1652016   -4.7214998    6.4108962    2.8545981 
 1880000   0.80448101 -0.061029158    1.6948066    1.1699802   -4.7156309    6.4104375    2.8647867 
 1890000   0.79670643  -0.13997866    1.6907148    1.1586734   -4.7240163    6.4147311    2.8493882 
 1900000   0.80127929  -0.10763023    1.6914721    1.1653238   -4.7196715    6.4111435    2.8567959 
 1910000   0.80225959  -0.10232958      1.69425    1.1667495   -4.7217141    6.4159642    2.8609995 
 1920000   0.79618085  -0.16441968    1.6924249     1.157909   -4.7243685    6.4167933    2.8503339 
 1930000   0.79798983  -0.12191623    1.6895801    1.1605399   -4.7231409    6.4127209      2.85012 
 1940000   0.80041714  -0.11964207    1.6918893      1.16407   -4.7257972    6.4176865    2.8559592 
 1950000   0.80356537  -0.12538942    1.6939809    1.1686485   -4.7174633    6.4114443    2.8626295 
 1960000   0.79844581  -0.18639909     1.687235     1.161203   -4.7259169    6.4131519     2.848438 
 1970000   0.80827809 -0.097785853    1.6969037    1.1755024   -4.7159551    6.4128587    2.8724061 
 1980000   0.80633603  -0.13989921    1.6937029     1.172678   -4.7224392    6.4161421    2.8663809 
 1990000   0.79848081  -0.14052354    1.6901894    1.1612539   -4.7229563    6.4131457    2.8514433 
 2000000   0.79897469  -0.20292304    1.6843438    1.1619722    -4.726487    6.4108308     2.846316 
 2010000   0.79816397  -0.13770288    1.6953786    1.1607931   -4.7185201    6.4138987    2.8561717 
 2020000   0.80541118  -0.13638213    1.6916877     1.171333   -4.7240105    6.4156982    2.8630207 
 2030000   0.79894784  -0.15886079    1.6970758    1.1619331   -4.7178179    6.4148937     2.859009 
 2040000   0.79768513  -0.11662119     1.689048    1.1600967   -4.7258038    6.4148518    2.8491448 
 2050000   0.79974599  -0.19036004    1.6839473    1.1630939   -4.7276934    6.4116406    2.8470412 
 2060000   0.80709529  -0.10950263    1.6967752    1.1737822   -4.7136281    6.4104034    2.8705574 
 2070000   0.80259245  -0.19095127    1.6857455    1.1672336   -4.7305255     6.416271    2.8529791 
 2080000   0.80411742  -0.11205944    1.6915343    1.1694514   -4.7226882    6.4142225    2.8609857 
 2090000   0.79916399  -0.12665147    1.6962674    1.1622475   -4.7170916    6.4133589    2.8585149 
 2100000   0.80346489  -0.14339864    1.6954862    1.1685024    -4.716131    6.4116172    2.8639886 
 2110000     0.798038  -0.15327558    1.6944257    1.1606099   -4.7199113    6.4143369    2.8550356 
 2120000   0.80472285  -0.12750323     1.694326    1.1703319    -4.719069     6.413395    2.8646579 
 2130000   0.79920878 -0.093520785    1.6998683    1.1623126   -4.7166182    6.4164864    2.8621809 
 2140000   0.80025226  -0.17934827    1.6974563    1.1638302   -4.7173359    6.4147922    2.8612864 
 2150000   0.80275908  -0.17300683    1.6951769    1.1674759   -4.7184215    6.4135985    2.8626529 
 2160000   0.80471808 -0.095655567    1.6919895     1.170325   -4.7206815     6.412671    2.8623145 
 2170000   0.80327461  -0.12288042    1.6960876    1.1682257    -4.716338    6.4124256    2.8643133 
 2180000   0.80228198  -0.07522494    1.7023239    1.1667821   -4.7137779    6.4161019     2.869106 
 2190000   0.80549545  -0.14501226    1.6900619    1.1714555    -4.720628    6.4106899    2.8615174 
 2200000   0.79775917 -0.085635091    1.6967969    1.1602044   -4.7168761     6.413673    2.8570013 
 2210000   0.80089155  -0.16430084    1.6904296    1.1647599   -4.7206733    6.4111029    2.8551895 
 2220000   0.79282946  -0.14773375    1.6929328     1.153035   -4.7201171    6.4130498    2.8459678 
 2230000   0.80409554 -0.074557395     1.695278    1.1694196   -4.7186833    6.4139613    2.8646976 
 2240000   0.79999817  -0.11038369     1.697302    1.1634607   -4.7148564    6.4121584    2.8607627 
 2250000   0.80590693  -0.14748705    1.6886082     1.172054    -4.725156    6.4137642    2.8606622 
 2260000   0.79411986  -0.16390592    1.6898763    1.1549117    -4.721988    6.4118643     2.844788 
 2270000    0.7977741  -0.10679063     1.690645    1.1602261   -4.7209451    6.4115901    2.8508711 
 2280000   0.79678585 -0.098545223    1.6995067    1.1587889   -4.7155122    6.4150189    2.8582956 
 2290000   0.79976156  -0.14913462    1.6885925    1.1631166   -4.7228583    6.4114508    2.8517091 
 2300000   0.79972341   -0.1819262    1.6806762    1.1630611   -4.7295186    6.4101948    2.8437372 
 2310000   0.80135466  -0.12300688    1.6977811    1.1654335   -4.7150948    6.4128759    2.8632146 
 2320000   0.80079016  -0.12078434    1.6954739    1.1646125   -4.7189268    6.4144006    2.8600864 
 2330000   0.79423761  -0.16615369     1.693348    1.1550829   -4.7189536    6.4123016    2.8484309 
 2340000    0.8008761  -0.18942354    1.6868675    1.1647375     -4.72628    6.4131475    2.8516049 
 2350000   0.80028029  -0.14435228    1.6873503     1.163871   -4.7247597      6.41211    2.8512212 
 2360000   0.79589442 -0.085701578    1.7042317    1.1574925   -4.7104061    6.4146378    2.8617242 
 2370000   0.80207401  -0.20869688    1.6817061    1.1664796   -4.7315384    6.4132445    2.8481857 
 2380000   0.79800018  -0.10783075    1.6951729    1.1605549    -4.721723     6.416896    2.8557279 
 2390000   0.80333061 -0.097371634    1.7026663    1.1683071   -4.7116681    6.4143343    2.8709734 
 2400000   0.80978225 -0.090280029    1.6902377    1.1776899   -4.7242796    6.4145173    2.8679276 
 2410000   0.79662876  -0.14112703    1.6829999    1.1585604   -4.7251657    6.4081656    2.8415603 
 2420000    0.7979388  -0.13633234    1.6839045    1.1604657   -4.7316665     6.415571    2.8443702 
 2430000   0.80445697  -0.11709544    1.6878335    1.1699452    -4.725667    6.4135005    2.8577788 
 2440000   0.80122814   -0.1480144    1.6888438    1.1652494   -4.7285607    6.4174045    2.8540932 
 2450000   0.79252445  -0.13769713    1.6925187    1.1525914   -4.7241172     6.416636    2.8451101 
 2460000   0.80054247  -0.13473299    1.6898439    1.1642523   -4.7226458    6.4124897    2.8540961 
 2470000   0.80457906  -0.20023881    1.6826102    1.1701228   -4.7317101    6.4143203     2.852733 
 2480000    0.7957752  -0.15951801    1.6917363    1.1573191   -4.7229963    6.4147326    2.8490554 
 2490000   0.80197349  -0.12400198    1.6868327    1.1663334   -4.7276122    6.4144449    2.8531661 
 2500000   0.80068001 -0.069695004    1.7059435    1.1644523   -4.7078128    6.4137563    2.8703958 
 2510000    0.8009413 -0.095190027    1.6974034    1.1648323     -4.71666    6.4140634    2.8622357 
 2520000   0.80102836  -0.10440422    1.6995201    1.1649589   -4.7136346    6.4131546     2.864479 
 2530000   0.79957013   -0.1635794    1.6951683    1.1628382   -4.7180173    6.4131856    2.8580065 
 2540000   0.80427704  -0.10049911    1.6909418    1.1696835   -4.7215182      6.41246    2.8606253 
 2550000   0.79966736 -0.089303429    1.7022272    1.1629796   -4.7147912    6.4170185    2.8652068 
 2560000   0.79485654  -0.10232537    1.6966079     1.155983   -4.7185845    6.4151923    2.8525909 
 2570000   0.79888449  -0.11028468     1.692864     1.161841   -4.7222282    6.4150922     2.854705 
 2580000   0.80246962   -0.1194563    1.6980616     1.167055   -4.7176936    6.4157551    2.8651165 
 2590000   0.80306158  -0.12189274    1.6969263    1.1679159   -4.7159982    6.4129245    2.8648422 
 2600000   0.80349793  -0.19117536    1.6867955    1.1685505   -4.7262797    6.4130752    2.8553459 
 2610000   0.79932703  -0.16463569    1.6889018    1.1624846   -4.7255685    6.4144702    2.8513864 
 2620000   0.80234502  -0.17049378    1.6929376    1.1668738   -4.7219776    6.4149152    2.8598114 
 2630000   0.80115873  -0.17592065    1.6930202    1.1651485   -4.7180941    6.4111143    2.8581687 
 2640000   0.80697434  -0.13437139    1.6945488    1.1736063    -4.719944    6.4144927    2.8681551 
 2650000   0.80353362 -0.084087181     1.701392    1.1686024   -4.7122417    6.4136336    2.8699943 
 2660000   0.80337968  -0.12929084     1.693894    1.1683785    -4.720702    6.4145961    2.8622725 
 2670000   0.81118374 -0.098135437    1.6959451    1.1797282   -4.7206995    6.4166447    2.8756733 
 2680000   0.79755226 -0.098132201    1.6974609    1.1599035   -4.7160856    6.4135466    2.8573644 
 2690000   0.79135567  -0.13134663    1.6959435    1.1508916   -4.7211438    6.4170873    2.8468351 
 2700000   0.80055158  -0.12839163    1.6915522    1.1642655   -4.7220453    6.4135975    2.8558177 
 2710000   0.80059463  -0.16165914    1.6982653    1.1643281    -4.715524    6.4137893    2.8625935 
 2720000   0.80449749  -0.14220747    1.6872516    1.1700042   -4.7243739    6.4116255    2.8572557 
 2730000   0.79966638  -0.12293994    1.7039685    1.1629781   -4.7111865     6.415155    2.8669466 
 2740000   0.79782466  -0.18570063    1.6884482    1.1602997   -4.7250869     6.413535    2.8487478 
 2750000    0.7998921  -0.21347129    1.6956645    1.1633064   -4.7207096    6.4163741    2.8589709 
 2760000   0.79828534  -0.17922677    1.6921216    1.1609697   -4.7253645    6.4174861    2.8530912 
 2770000   0.79738014  -0.16853441    1.6904504    1.1596532   -4.7242263    6.4146767    2.8501036 
 2780000   0.79568337  -0.16830383    1.6868745    1.1571855   -4.7299718    6.4168463      2.84406 
 2790000   0.79995236 -0.065462417    1.7008466     1.163394     -4.71419    6.4150366    2.8642406 
 2800000   0.80279611  -0.11626229    1.6926186    1.1675298   -4.7198391    6.4124577    2.8601484 
 2810000   0.79905623  -0.11216537     1.688902    1.1620908   -4.7244995    6.4134016    2.8509928 
 2820000   0.80364025  -0.06635209    1.6998779    1.1687575   -4.7132472    6.4131251    2.8686354 
 2830000   0.80152349  -0.14025605    1.6968905     1.165679   -4.7168181    6.4137086    2.8625695 
 2840000   0.79896169 -0.095624981    1.6902474    1.1619533    -4.720928    6.4111754    2.8522006 
 2850000     0.802697  -0.14420664    1.6965422    1.1673856   -4.7173732    6.4139153    2.8639278 
 2860000   0.79682269  -0.12839288     1.698931    1.1588425   -4.7164097    6.4153406    2.8577734 
 2870000   0.79705771  -0.11764381    1.6945449    1.1591843    -4.722249    6.4167939    2.8537291 
 2880000   0.80315188  -0.13181938    1.7032368    1.1680472   -4.7144526    6.4176893     2.871284 
 2890000   0.80644285  -0.16106498    1.6926078    1.1728334   -4.7175039    6.4101117    2.8654412 
 2900000   0.80611635 -0.076877413    1.6975847    1.1723585    -4.712908    6.4104928    2.8699432 
 2910000   0.81025443  -0.16132591    1.6928716    1.1783766   -4.7228613    6.4157329    2.8712483 
 2920000   0.80246276  -0.11303373    1.6953238     1.167045   -4.7201724    6.4154962    2.8623688 
 2930000   0.79398221  -0.12694357    1.6919649    1.1547115   -4.7208533    6.4128182    2.8466764 
 2940000   0.79722686  -0.12995302    1.6997498    1.1594303   -4.7164066    6.4161564      2.85918 
 2950000   0.79906208  -0.12515684    1.6957219    1.1620993   -4.7163204    6.4120423    2.8578212 
 2960000   0.79370094  -0.13873503    1.6938254    1.1543024   -4.7196469    6.4134723    2.8481278 
 2970000   0.79218497  -0.13479598    1.6955291    1.1520977   -4.7212025    6.4167316    2.8476268 
 2980000   0.80621624   -0.1232422    1.6963778    1.1725038   -4.7207861    6.4171639    2.8688816 
 2990000    0.8046776  -0.16481875    1.6939488    1.1702661   -4.7198965    6.4138453    2.8642148 
 3000000   0.80285398  -0.13536244    1.6841318     1.167614   -4.7296586    6.4137904    2.8517457 
 3010000   0.79353976  -0.13527185    1.6944396     1.154068   -4.7183407    6.4127804    2.8485077 
 3020000   0.80322446  -0.17431682    1.6935663    1.1681528   -4.7211699    6.4147362     2.861719 
 3030000   0.80066796   -0.1635033    1.6954159    1.1644348   -4.7203187    6.4157346    2.8598507 
 3040000   0.79814077  -0.14457681    1.6909236    1.1607594   -4.7224633    6.4133869     2.851683 
 3050000   0.79481237  -0.15424209    1.6815106    1.1559188    -4.734055    6.4155656    2.8374294 
 3060000   0.80071017 -0.080440969    1.6946935    1.1644961   -4.7186404    6.4133339    2.8591897 
 3070000   0.80468842  -0.14351082    1.6982326    1.1702818   -4.7170975    6.4153301    2.8685145 
 3080000   0.79914516  -0.17978768    1.6900306    1.1622201   -4.7219378    6.4119685    2.8522507 
 3090000   0.80180698  -0.12015938    1.6960221    1.1660913   -4.7182676    6.4142898    2.8621134 
 3100000   0.79734202  -0.23147529    1.6757402    1.1595977   -4.7342948     6.410035    2.8353379 
 3110000   0.79409643 -0.082115474    1.6958824    1.1548776   -4.7176627    6.4135451    2.8507599 
 3120000   0.80657213   -0.1291283    1.6962421    1.1730214   -4.7197944    6.4160364    2.8692634 
 3130000   0.80354642 -0.052889227    1.6915445     1.168621   -4.7221256      6.41367    2.8601655 
 3140000   0.80237278  -0.16065089    1.6921597    1.1669141   -4.7253251    6.4174849    2.8590738 
 3150000   0.79731248    -0.141589    1.6955198    1.1595548    -4.718781    6.4143008    2.8550746 
 3160000   0.80041557   -0.1625279    1.6895815    1.1640677   -4.7205659    6.4101475    2.8536492 
 3170000   0.79586438  -0.17901941    1.6944519    1.1574488   -4.7196537    6.4141055    2.8519006 
 3180000   0.80034645  -0.12875605    1.6950532    1.1639672   -4.7181052    6.4131584    2.8590204 
 3190000   0.80103283  -0.14472378    1.6967905    1.1649654    -4.717814    6.4146045    2.8617559 
 3200000   0.79638053   -0.1474507    1.6932994    1.1581994   -4.7212214    6.4145208    2.8514988 
 3210000    0.8052766  -0.11079713    1.6872562    1.1711372   -4.7276238    6.4148801    2.8583935 
 3220000    0.8011524   -0.1474879    1.6937352    1.1651393   -4.7221728     6.415908    2.8588745 
 3230000    0.8007748  -0.12302343    1.6943837    1.1645901   -4.7194845    6.4138682    2.8589738 
 3240000   0.79456329  -0.14554548    1.6953754    1.1555566   -4.7209866    6.4163621     2.850932 
 3250000   0.79966344  -0.13412154    1.6883822    1.1629739   -4.7232386    6.4116209    2.8513561 
 3260000   0.79834868  -0.14347099    1.6986082    1.1610618   -4.7175154    6.4161236      2.85967 
 3270000   0.80510011  -0.10166886    1.6963895    1.1708806   -4.7200561    6.4164456    2.8672701 
 3280000   0.80374995 -0.074877033    1.7011043     1.168917   -4.7132132    6.4143175    2.8700213 
 3290000    0.8039681  -0.12340517    1.6948238    1.1692343   -4.7203455    6.4151693     2.864058 
 3300000   0.80193207  -0.16231452    1.6883459    1.1662732   -4.7276898    6.4160357    2.8546191 
 3310000    0.8005955  -0.15499628    1.6885471    1.1643294   -4.7270628      6.41561    2.8528765 
 3320000   0.80152251  -0.13962732    1.6916446    1.1656776   -4.7224948    6.4141395    2.8573222 
 3330000   0.80621647  -0.12998902     1.697677    1.1725041   -4.7187653    6.4164423    2.8701811 
 3340000   0.80004941  -0.14759126    1.6885097    1.1635352     -4.72381    6.4123197    2.8520449 
 3350000   0.80297232  -0.12923453    1.6860817    1.1677861   -4.7285601    6.4146418    2.8538678 
 3360000   0.80791793  -0.13391271    1.6971165    1.1749786    -4.718735    6.4158515    2.8720951 
 3370000   0.79736343  -0.10436948     1.694848    1.1596289   -4.7132708    6.4081187    2.8544768 
 3380000   0.80260423  -0.11670757    1.6932199    1.1672507   -4.7203884    6.4136083    2.8604706 
 3390000   0.80593334  -0.10005534    1.6950308    1.1720924    -4.720777    6.4158078    2.8671232 
 3400000   0.79904578  -0.14949298    1.6862035    1.1620756   -4.7306593    6.4168628    2.8482791 
 3410000   0.79662174  -0.14737402    1.6964784    1.1585502   -4.7186931    6.4151714    2.8550286 
 3420000   0.79793075   -0.1025302    1.6965755     1.160454   -4.7169301    6.4135056    2.8570294 
 3430000   0.79789809  -0.10198276    1.7010853    1.1604065   -4.7130878    6.4141731    2.8614917 
 3440000   0.79652704  -0.15662534    1.6918034    1.1584125   -4.7211889    6.4129923    2.8502159 
 3450000   0.80103646 -0.094278823    1.6988287    1.1649707    -4.717808    6.4166366    2.8637993 
 3460000   0.80100393  -0.18067619    1.6861903    1.1649234   -4.7283738    6.4145642    2.8511137 
 3470000   0.79942489  -0.20828139    1.6839622    1.1626269   -4.7316911    6.4156532    2.8465891 
 3480000   0.80161444  -0.15205206    1.6889266    1.1658112   -4.7256622    6.4145888    2.8547378 
 3490000    0.8023684  -0.13975943    1.6979081    1.1669078   -4.7209533    6.4188615    2.8648159 
 3500000   0.79939096   -0.2225164    1.6903445    1.1625776   -4.7254654    6.4158099    2.8529221 
 3510000   0.80430086  -0.11920685    1.6933089    1.1697182   -4.7223048    6.4156137    2.8630271 
 3520000   0.79738991  -0.16109579    1.6878977    1.1596674   -4.7264386    6.4143363    2.8475651 
 3530000   0.79936629 -0.061856521    1.6918236    1.1625417   -4.7214566    6.4132802    2.8543653 
 3540000   0.80346127  -0.13828002    1.6961667    1.1684971   -4.7189289    6.4150956    2.8646638 
 3550000   0.79820519  -0.12326165    1.6927745    1.1608531   -4.7235553    6.4163298    2.8536276 
 3560000   0.80828779 -0.064802686    1.6898356    1.1755165   -4.7229167    6.4127523    2.8653521 
 3570000   0.79690487  -0.14479507    1.6849481     1.158962     -4.72363    6.4085782    2.8439101 
 3580000   0.79732057  -0.15073351     1.691516    1.1595665   -4.7236324    6.4151484    2.8510825 
 3590000   0.80663672  -0.10944673    1.6966701    1.1731153   -4.7175295    6.4141996    2.8697854 
 3600000   0.79827677  -0.12015486    1.6950583    1.1609572   -4.7210869    6.4161452    2.8560155 
 3610000   0.80707925 -0.094026634    1.6971172    1.1737589   -4.7164467    6.4135639     2.870876 
 3620000   0.79623271  -0.12458574    1.6920174    1.1579845   -4.7219456     6.413963    2.8500018 
 3630000    0.8024096  -0.11338609    1.6913148    1.1669677   -4.7236135    6.4149283    2.8582825 
 3640000   0.79810579  -0.16320659    1.6905121    1.1607085   -4.7230196    6.4135316    2.8512206 
 3650000    0.7930135  -0.16541889    1.6929557    1.1533027   -4.7207681    6.4137238    2.8462583 
 3660000   0.79678378  -0.14876744    1.6932378    1.1587859   -4.7230969    6.4163347    2.8520237 
 3670000   0.79853669 -0.096232451    1.6930438    1.1613352   -4.7205798    6.4136235     2.854379 
 3680000   0.80203558  -0.13997053     1.690815    1.1664237   -4.7227977    6.4136128    2.8572388 
 3690000   0.79861471 -0.097181889    1.6926262    1.1614487   -4.7221865    6.4148127    2.8540749 
 3700000   0.79511639  -0.18459338    1.6895823     1.156361   -4.7249421    6.4145244    2.8459433 
 3710000   0.80668343  -0.13412112    1.6893137    1.1731832   -4.7208756    6.4101892    2.8624969 
 3720000   0.79559028  -0.13340738    1.6905417    1.1570501   -4.7257519    6.4162936    2.8475918 
 3730000   0.80141676   -0.1479963    1.6855323    1.1655238   -4.7280105    6.4135428     2.851056 
 3740000   0.80645971  -0.10345277    1.6986022    1.1728579   -4.7155004    6.4141027    2.8714601 
 3750000    0.7952599 -0.059995225    1.6982304    1.1565697   -4.7183306    6.4165609       2.8548 
 3760000   0.79720566  -0.10727348    1.6996307    1.1593994   -4.7165012    6.4161319    2.8590301 
 3770000   0.80561827  -0.15070697    1.6892726    1.1716341   -4.7214569    6.4107295    2.8609067 
 3780000   0.79842437  -0.11225249    1.6882878    1.1611718   -4.7241261     6.412414    2.8494597 
 3790000   0.80030738  -0.14757029    1.6910404    1.1639104   -4.7270534    6.4180937    2.8549507 
 3800000   0.79371988    -0.145154    1.6844482      1.15433   -4.7261429    6.4105911    2.8387782 
 3810000   0.80306531  -0.12613991    1.6929736    1.1679213   -4.7199713    6.4129449    2.8608949 
 3820000   0.79841127  -0.12185008    1.6851752    1.1611528   -4.7268311    6.4120063     2.846328 
 3830000   0.80110594 -0.098708418    1.6981517    1.1650717   -4.7166515    6.4148032    2.8632234 
 3840000   0.80973789  -0.11288848    1.6907606    1.1776254   -4.7227451    6.4135057     2.868386 
 3850000   0.80331742  -0.11786576    1.6978792    1.1682879   -4.7183432    6.4162224    2.8661672 
 3860000    0.8022844  -0.10341771    1.7010857    1.1667856   -4.7130885    6.4141742    2.8678713 
 3870000   0.80148237  -0.06463983    1.6909276    1.1656192    -4.723442    6.4143696    2.8565468 
 3880000   0.79085922  -0.18232401    1.6931855    1.1501696   -4.7245227    6.4177082    2.8433551 
 3890000   0.79613832 -0.083450357    1.7027261    1.1578472   -4.7144858    6.4172119    2.8605732 
 3900000   0.79972756  -0.10662083    1.7021306    1.1630671   -4.7159688    6.4180994    2.8651977 
 3910000   0.79666267  -0.19801521    1.6939321    1.1586098   -4.7225734    6.4165055    2.8525419 
 3920000   0.79838799   -0.1564044    1.6874717    1.1611189   -4.7246324    6.4121041    2.8485906 
 3930000   0.79848547   -0.1383073    1.6916083    1.1612607   -4.7243244    6.4159327     2.852869 
 3940000   0.80254816  -0.20037206    1.6871832    1.1671692    -4.728623    6.4158062    2.8543523 
 3950000   0.80570212  -0.15728894    1.6919152    1.1717561    -4.720133    6.4120481    2.8636713 
 3960000    0.7988902  -0.10412396    1.6937439    1.1618493   -4.7188447    6.4125886    2.8555932 
 3970000   0.79949021  -0.11650563    1.7084861    1.1627219   -4.7064144    6.4149005     2.871208 
 3980000   0.80699875  -0.11421331    1.6949212    1.1736418   -4.7191359     6.414057     2.868563 
 3990000   0.79443278   -0.1910368    1.6864667    1.1553668   -4.7250258    6.4114925    2.8418335 
 4000000   0.79901431  -0.13392674    1.6919086    1.1620298   -4.7230342    6.4149428    2.8539384 
 4010000    0.8017204  -0.11655963    1.6937348    1.1659654   -4.7208839    6.4146188    2.8597002 
 4020000   0.80146746  -0.13797781    1.6997074    1.1655975   -4.7143373    6.4140447    2.8653049 
 4030000   0.80026596 -0.080127762    1.6967507    1.1638501   -4.7148985    6.4116493    2.8606009 
 4040000   0.80369037  -0.11735722     1.694496    1.1688303   -4.7221261    6.4166221    2.8633264 
 4050000   0.80318796  -0.16190428    1.6908303    1.1680997   -4.7230064    6.4138368      2.85893 
 4060000    0.8041594  -0.12349487    1.6998303    1.1695125   -4.7153509    6.4151812    2.8693428 
 4070000   0.79842315  -0.13114315    1.6903274    1.1611701   -4.7216293    6.4119566    2.8514974 
 4080000   0.80264599  -0.12204854    1.6931432    1.1673115    -4.719725    6.4128681    2.8604546 
 4090000   0.79743919  -0.10625817     1.692036    1.1597391   -4.7237168    6.4157528    2.8517751 
 4100000   0.79852307  -0.13065968      1.69483    1.1613154   -4.7165134    6.4113434    2.8561454 
 4110000   0.80173441  -0.13647021    1.6875578    1.1659857   -4.7259024    6.4134602    2.8535435 
 4120000   0.80181727 -0.066582833    1.6969687    1.1661062   -4.7180683     6.415037     2.863075 
 4130000   0.79833929  -0.12076029     1.700013    1.1610481    -4.712458     6.412471    2.8610611 
 4140000   0.79905748  -0.16633474    1.6900566    1.1620926   -4.7203977    6.4104543    2.8521492 
 4150000   0.80256429  -0.16973626    1.6886453    1.1671927   -4.7262567     6.414902    2.8558379 
 4160000   0.80375254  -0.13030198    1.6917052    1.1689208   -4.7216278     6.413333    2.8606259 
 4170000    0.7916886   -0.1722064    1.6872107    1.1513758   -4.7273611    6.4145718    2.8385865 
 4180000   0.80341473   -0.1157644    1.6936727    1.1684295   -4.7196206    6.4132933    2.8621022 
 4190000   0.80324647 -0.082645206    1.7014077    1.1681848   -4.7158031    6.4172108    2.8695925 
 4200000   0.79006517  -0.20157988    1.6931167    1.1490148   -4.7226405    6.4157572    2.8421316 
 4210000   0.80460605    -0.139802    1.6881723     1.170162   -4.7269878    6.4151601    2.8583343 
 4220000    0.8004646  -0.06851957     1.696371     1.164139   -4.7141339    6.4105049    2.8605101 
 4230000   0.80421011 -0.048995307    1.6997519    1.1695862   -4.7134272    6.4131791    2.8693381 
 4240000   0.79710879  -0.13612597    1.6837562    1.1592585   -4.7295164    6.4132726    2.8430148 
 4250000   0.80349348   -0.1301292    1.6976246     1.168544   -4.7159273     6.413552    2.8661686 
 4260000   0.80100332 -0.074919789    1.6991776    1.1649225   -4.7135472    6.4127248    2.8641001 
 4270000    0.7989233  -0.12784838    1.6938271    1.1618975   -4.7194465    6.4132736    2.8557246 
 4280000    0.8006713  -0.11528664    1.6967205    1.1644396    -4.716354    6.4130744    2.8611601 
 4290000   0.80235756  -0.13308114    1.6943585     1.166892   -4.7194615      6.41382    2.8612505 
 4300000   0.80512364  -0.13979043    1.6895323    1.1709148   -4.7248946    6.4144268    2.8604471 
 4310000   0.80442931 -0.098975758    1.6990768     1.169905   -4.7171607    6.4162374    2.8689818 
 4320000   0.79602666  -0.14698326    1.6928489    1.1576848   -4.7211961     6.414045    2.8505337 
 4330000   0.79770169  -0.15147599     1.685625    1.1601208   -4.7268479    6.4124729    2.8457458 
 4340000   0.80454535  -0.15222339    1.6899711    1.1700738   -4.7234324    6.4134035    2.8600448 
 4350000   0.80068264   -0.1484409    1.6923239    1.1644561   -4.7213658    6.4136897      2.85678 
 4360000   0.79778213  -0.11363063     1.698131    1.1602378   -4.7162441    6.4143751    2.8583689 
 4370000   0.80167148   -0.1475384     1.690121    1.1658942   -4.7237615    6.4138825    2.8560152 
 4380000   0.79924731  -0.18788565    1.6854304    1.1623687   -4.7263129    6.4117433    2.8477991 
 4390000    0.7981827 -0.076743101    1.6931804    1.1608204    -4.719082    6.4122624    2.8540008 
 4400000   0.79464597 -0.042887182    1.7006521    1.1556768   -4.7144346    6.4150867    2.8563289 
 4410000   0.79273236  -0.14409442    1.6843907    1.1528938   -4.7256361    6.4100268    2.8372845 
 4420000    0.8071819   -0.1041538    1.6970784    1.1739082   -4.7157858    6.4128642    2.8709866 
 4430000   0.79715924  -0.18381702    1.6981764    1.1593319   -4.7194126    6.4175889    2.8575083 
 4440000   0.80406631  -0.10341152    1.6917126    1.1693771   -4.7190891    6.4108017    2.8610896 
 4450000    0.8067555  -0.12947714    1.6966659     1.173288   -4.7147398    6.4114057     2.869954 
 4460000   0.80097528 -0.096692544    1.7010403    1.1648817    -4.713344    6.4143843     2.865922 
 4470000   0.79892428  -0.15261459    1.6863301    1.1618989   -4.7248868    6.4112169     2.848229 
 4480000        0.803   -0.1047638    1.6956013    1.1678263   -4.7200245    6.4156257    2.8634276 
 4490000   0.79378084  -0.15278864    1.6940154    1.1544186    -4.719901    6.4139164     2.848434 
 4500000   0.80308889 -0.093934369    1.6946229    1.1679556   -4.7225748    6.4171977    2.8625785 
 4510000   0.80558696  -0.12069276      1.69493    1.1715886   -4.7208807    6.4158106    2.8665186 
 4520000   0.80279521  -0.11987957    1.6941164    1.1675285     -4.72041    6.4145264    2.8616449 
 4530000   0.79538659     -0.13115    1.6980979    1.1567539   -4.7151258    6.4132237    2.8548518 
 4540000   0.79884282  -0.10986148    1.6921883    1.1617804   -4.7200291    6.4122174    2.8539687 
 4550000   0.80036358  -0.14883453    1.6858289    1.1639921   -4.7253312    6.4111602     2.849821 
 4560000   0.80271864 -0.095368396    1.6961898    1.1674171   -4.7216708    6.4178606     2.863607 
 4570000   0.80406271  -0.10757533    1.6952273    1.1693718   -4.7187868    6.4140141    2.8645991 
 4580000   0.80340313 -0.073242517    1.6942076    1.1684126   -4.7191638    6.4133714    2.8626202 
 4590000   0.79546556  -0.12211104    1.6942508    1.1568688   -4.7183337    6.4125844    2.8511195 
 4600000   0.79729127  -0.14841144    1.6863426    1.1595239   -4.7267347    6.4130773    2.8458666 
 4610000   0.79933587  -0.15772135    1.6940198    1.1624975   -4.7180184    6.4120382    2.8565173 
 4620000   0.80294028  -0.15855843    1.6948775    1.1677395   -4.7191133    6.4139908     2.862617 
 4630000   0.79783199  -0.13776146     1.693868    1.1603103   -4.7225006    6.4163686    2.8541784 
 4640000   0.79551893 -0.096317672    1.6990505    1.1569464   -4.7132786    6.4123291    2.8559969 
 4650000   0.79178146  -0.15247062    1.6916035    1.1515109   -4.7211539    6.4127574    2.8431143 
 4660000   0.79790124 -0.055547531     1.704535     1.160411   -4.7122408    6.4167758     2.864946 
 4670000   0.80417071   -0.1541881    1.6964207    1.1695289   -4.7184311    6.4148518    2.8659496 
 4680000   0.80177594  -0.10318805    1.6959561    1.1660461   -4.7181823    6.4141383    2.8620022 
 4690000   0.79590352  -0.15498609     1.693368    1.1575057   -4.7195874    6.4129553    2.8508737 
 4700000   0.79627544 -0.095401846    1.6926898    1.1580466   -4.7196993    6.4123891    2.8507364 
 4710000   0.80616557  -0.11103978    1.6996471    1.1724301   -4.7150494    6.4146965    2.8720772 
 4720000    0.8053335  -0.15576216    1.6943653      1.17122   -4.7209549    6.4153202    2.8655853 
 4730000   0.79826912  -0.16022587    1.6946014    1.1609461   -4.7192913    6.4138927    2.8555474 
 4740000   0.80017171  -0.17608085    1.6919543     1.163713     -4.72093    6.4128844    2.8556674 
 4750000    0.8017196  -0.15536382      1.69541    1.1659642   -4.7200525    6.4154625    2.8613742 
 4760000   0.80273293  -0.17592457    1.6887311    1.1674379   -4.7212976    6.4100286     2.856169 
 4770000   0.80402718 -0.090708989     1.693856    1.1693202   -4.7205073    6.4143633    2.8631761 
 4780000   0.79576199  -0.15086795    1.6891588    1.1572999   -4.7234072     6.412566    2.8464587 
 4790000   0.80031553  -0.14471795     1.698563    1.1639222   -4.7172457    6.4158088    2.8624852 
 4800000   0.80145805  -0.14597802    1.6857158    1.1655838    -4.728213    6.4139288    2.8512996 
 4810000   0.79903215  -0.11163879    1.6999704    1.1620558   -4.7159592    6.4159296    2.8620261 
 4820000   0.80435356  -0.15027376    1.6963997    1.1697948   -4.7137513     6.410151    2.8661945 
 4830000   0.79110838 -0.061577157    1.7026803     1.150532   -4.7119234    6.4146037    2.8532123 
 4840000   0.79994125  -0.18016509    1.6936431    1.1633779   -4.7195111    6.4131542     2.857021 
 4850000   0.79678978  -0.11529569    1.6929578    1.1587946   -4.7223044    6.4152622    2.8517524 
 4860000    0.8020572  -0.10433341    1.6985021    1.1664552   -4.7168608    6.4153629    2.8649573 
 4870000   0.80303536 -0.068611296    1.6948906    1.1678777   -4.7189331    6.4138237    2.8627683 
 4880000   0.80528934  -0.12766264    1.6946942    1.1711558   -4.7195279    6.4142221    2.8658499 
 4890000   0.80727233  -0.14620776    1.6979303    1.1740397   -4.7143605    6.4122908    2.8719699 
 4900000   0.79560693  -0.14173736    1.6910925    1.1570744   -4.7202762    6.4113688    2.8481669 
 4910000   0.79900822  -0.13046091    1.6926952     1.162021   -4.7241951    6.4168903    2.8547162 
 4920000   0.79531824  -0.11568614    1.6993383    1.1566545   -4.7136202    6.4129586    2.8559928 
 4930000   0.80642251   -0.1297616    1.7009113    1.1728038   -4.7149557     6.415867     2.873715 
 4940000   0.80212451  -0.12260075    1.6917037    1.1665531    -4.722698    6.4144017    2.8582567 
 4950000   0.79874809  -0.14451008    1.6933198    1.1616426   -4.7219103    6.4152301    2.8549624 
 4960000   0.80338555  -0.11509216    1.6923105     1.168387   -4.7208125     6.413123    2.8606976 
 4970000   0.79838788  -0.15805542    1.6885199    1.1611188   -4.7248304    6.4133503    2.8496387 
 4980000   0.79768237  -0.14113639    1.6997652    1.1600927   -4.7126546    6.4124197    2.8598579 
 4990000    0.7991191  -0.17329219    1.6887209    1.1621822   -4.7250146    6.4137355    2.8509031 
 5000000   0.80120422  -0.14102185    1.6886675    1.1652147   -4.7210113    6.4096788    2.8538821 
 5010000   0.79627622  -0.11536934    1.6876672    1.1580477   -4.7279341    6.4156013    2.8457149 
 5020000   0.79914158  -0.11625733    1.6924036    1.1622149   -4.7230812    6.4154848    2.8546185 
 5030000   0.79957007  -0.11957201    1.6874042    1.1628381   -4.7238039     6.411208    2.8502422 
 5040000   0.80474943  -0.18809984    1.6829645    1.1703706   -4.7340119    6.4169764     2.853335 
 5050000    0.7985165 -0.078232076    1.7057171    1.1613058   -4.7114046    6.4171217    2.8670229 
 5060000   0.80296049  -0.17910989    1.6882077    1.1677689   -4.7248798    6.4130875    2.8559765 
 5070000   0.80509389  -0.18174882    1.6911367    1.1708715   -4.7232183     6.414355    2.8620082 
 5080000    0.7979551   -0.1817038    1.6910032    1.1604894   -4.7236415    6.4146447    2.8514925 
 5090000   0.80323533  -0.18131211    1.6933452    1.1681686   -4.7201068     6.413452    2.8615138 
 5100000   0.80239381  -0.17963449    1.6926178    1.1669447   -4.7207543    6.4133722    2.8595626 
 5110000   0.80072591   -0.1011258    1.6905518     1.164519   -4.7256821    6.4162339    2.8550709 
 5120000   0.79597997  -0.13265876    1.6971962    1.1576169    -4.715451    6.4126472     2.854813 
 5130000   0.80526604  -0.14485321    1.6913652    1.1711219   -4.7228276    6.4141928    2.8624871 
 5140000   0.79651996 -0.099631372    1.6993209    1.1584022   -4.7123686    6.4116895    2.8577231 
 5150000   0.80018986 -0.081521192    1.7029465    1.1637395   -4.7095662    6.4125127     2.866686 
 5160000   0.79894736  -0.14869427    1.6886822    1.1619324   -4.7250022    6.4136844    2.8506146 
 5170000   0.79992953  -0.15592898    1.6964755    1.1633608   -4.7193559    6.4158314    2.8598363 
 5180000   0.80039618  -0.12588083    1.6932394    1.1640395   -4.7222732    6.4155125    2.8572789 
 5190000   0.80425359 -0.064920576    1.7004288    1.1696494   -4.7166827    6.4171115    2.8700783 
 5200000   0.80451199  -0.18280359    1.6928098    1.1700252   -4.7204067    6.4132165     2.862835 
 5210000    0.7945245  -0.15691793    1.6949045    1.1555002   -4.7231859    6.4180904    2.8504047 
 5220000   0.79615124  -0.17308327     1.683142     1.157866     -4.72744     6.410582    2.8410079 
 5230000   0.80147269  -0.15818503    1.6877697    1.1656051   -4.7244009    6.4121705    2.8533748 
 5240000   0.80086579  -0.12542123    1.6892967    1.1647225   -4.7239992    6.4132959    2.8540191 
 5250000   0.80195912  -0.19738723     1.695211    1.1663125    -4.718393     6.413604    2.8615236 
 5260000   0.80527573  -0.12706443    1.6962269     1.171136   -4.7193807    6.4156076    2.8673629 
 5270000    0.8007987 -0.082410285    1.6936082    1.1646249   -4.7199794    6.4135875    2.8582331 
 5280000   0.80029731  -0.10744147     1.693079    1.1638957   -4.7188562    6.4119352    2.8569747 
 5290000   0.79983095  -0.14007383    1.6941899    1.1632175   -4.7207909    6.4149808    2.8574073 
 5300000   0.79587796 -0.082809766     1.698026    1.1574685   -4.7168846    6.4149106    2.8554945 
 5310000   0.80065214  -0.15280952    1.6955793    1.1644118   -4.7150239    6.4106032     2.859991 
 5320000   0.79943885   -0.1014821    1.6948869    1.1626472   -4.7195488    6.4144357    2.8575341 
 5330000   0.79654853  -0.11477668    1.6891681    1.1584437   -4.7248256    6.4139937    2.8476119 
 5340000   0.80459665  -0.13995743    1.6894373    1.1701484   -4.7246126    6.4140499    2.8595857 
 5350000   0.80149981  -0.15005824    1.6902309    1.1656445   -4.7240279    6.4142588    2.8558754 
 5360000   0.79975924  -0.11353781    1.6908986    1.1631132   -4.7224393    6.4133379    2.8540117 
 5370000    0.8024817  -0.15611794    1.6929039    1.1670725   -4.7212073    6.4141112    2.8599764 
 5380000   0.80068142  -0.14473096    1.6827642    1.1644543   -4.7305357       6.4133    2.8472186 
 5390000   0.79534449 -0.066093624     1.702603    1.1566927   -4.7097806    6.4123837    2.8592957 
 5400000   0.80162546  -0.13396671     1.691025    1.1658273   -4.7206032    6.4116281    2.8568523 
 5410000   0.80418546  -0.16359599    1.6842286    1.1695504   -4.7290301    6.4132587    2.8537789 
 5420000   0.80339388  -0.11943163    1.6887779    1.1683991   -4.7232178    6.4119958    2.8571771 
 5430000   0.80052429  -0.16024448    1.6915226    1.1642258   -4.7232209    6.4147435    2.8557484 
 5440000   0.79803164  -0.12420905    1.6854647    1.1606007    -4.727977    6.4134418    2.8460654 
 5450000   0.79524782  -0.16740609    1.6857886    1.1565521   -4.7290664    6.4148551    2.8423407 
 5460000   0.80061624  -0.14124968    1.6874556    1.1643595   -4.7270207    6.4144762    2.8518151 
 5470000   0.79296315  -0.13628292    1.6930439    1.1532294   -4.7209905    6.4140344    2.8462733 
 5480000   0.79804969  -0.12931816    1.6913754    1.1606269   -4.7208381    6.4122135    2.8520023 
 5490000   0.79943396  -0.09749721    1.6944788    1.1626401    -4.721402    6.4158808    2.8571189 
 5500000   0.80300427 -0.097198273    1.6926855    1.1678325   -4.7207426    6.4134281    2.8605181 
 5510000   0.80054305  -0.10989155    1.6969232    1.1642531   -4.7157242    6.4126474    2.8611764 
 5520000   0.80819836 -0.086736784    1.6947889    1.1753864   -4.7221024    6.4168913    2.8701754 
 5530000   0.79679238  -0.14475934     1.698359    1.1587984    -4.719141       6.4175    2.8571574 
 5540000    0.7955051  -0.15003256    1.6855943    1.1569263   -4.7249045    6.4104989    2.8425206 
 5550000   0.79811841  -0.16108751    1.6937967    1.1607269   -4.7199791    6.4137758    2.8545235 
 5560000   0.81072567  -0.14982381    1.6951791     1.179062   -4.7200434    6.4152225    2.8742411 
 5570000   0.80056139  -0.13837067    1.6896846    1.1642798   -4.7233057    6.4129904    2.8539644 
 5580000   0.80150339  -0.16070804    1.6903383    1.1656498   -4.7241181    6.4144563     2.855988 
 5590000   0.79734686  -0.14644171    1.6939863    1.1596048    -4.722337    6.4163234    2.8535911 
 5600000   0.79293321  -0.13644246    1.6949771    1.1531859   -4.7210279     6.416005     2.848163 
 5610000    0.7956287  -0.11306869    1.6961169     1.157106   -4.7216188    6.4177357    2.8532229 
 5620000   0.80138711  -0.10123337    1.6958582    1.1654806   -4.7182945    6.4141528    2.8613389 
 5630000   0.79643223 -0.082669359    1.6947812    1.1582746   -4.7198602    6.4146413    2.8530558 
 5640000   0.79946402  -0.11629923    1.6907224    1.1626838    -4.724604    6.4153263    2.8534062 
 5650000   0.80677624  -0.15197285    1.6877042    1.1733182   -4.7248945    6.4125987    2.8610224 
 5660000   0.80022886   -0.1437442    1.6870813    1.1637962   -4.7245824    6.4116637    2.8508775 
 5670000   0.80448272  -0.12355046    1.6876884    1.1699827   -4.7219412    6.4096296     2.857671 
 5680000   0.79610794 -0.091090309    1.6935989     1.157803   -4.7204208    6.4140197    2.8514019 
 5690000   0.79724013  -0.14044492    1.7016593    1.1594496   -4.7161459    6.4178052    2.8611088 
 5700000    0.7990908  -0.11469364    1.6940139    1.1621411    -4.719237    6.4132509    2.8561549 
 5710000   0.79504045  -0.16187975    1.6930825    1.1562505   -4.7190776    6.4121602     2.849333 
 5720000   0.80041061  -0.09246227    1.6987742    1.1640605   -4.7165027    6.4152769    2.8628347 
 5730000   0.80048554  -0.13689999     1.687547    1.1641695   -4.7269564    6.4145034    2.8517165 
 5740000   0.80168701  -0.12641547     1.695619    1.1659168   -4.7163812    6.4120002    2.8615358 
 5750000   0.79752114  -0.15032353    1.6879277    1.1598582   -4.7262546    6.4141823    2.8477859 
 5760000   0.80496638  -0.11923518    1.6965021    1.1706861   -4.7189626    6.4154647    2.8671882 
 5770000   0.80713955  -0.10873282    1.6911561    1.1738466   -4.7214726    6.4126287    2.8650027 
 5780000   0.79390495   -0.1433509    1.6937298    1.1545991   -4.7240971    6.4178269    2.8483289 
 5790000   0.79743192  -0.19466845    1.6858559    1.1597285    -4.726659    6.4125148    2.8455844 
 5800000   0.80370145  -0.14667621    1.6966009    1.1688465   -4.7181975    6.4147984    2.8654474 
 5810000    0.7996691   -0.1504464    1.6846192    1.1629821   -4.7314392    6.4160584    2.8476013 
 5820000   0.79150761  -0.12615092    1.6900084    1.1511126   -4.7243999    6.4144083     2.841121 
 5830000   0.79100864  -0.18648032    1.6949302    1.1503869   -4.7237376    6.4186678    2.8453171 
 5840000   0.79538588  -0.10303034    1.6934739    1.1567529   -4.7184599    6.4119338    2.8502268 
 5850000   0.80060281  -0.14765149    1.6924799      1.16434   -4.7219693    6.4144493      2.85682 
 5860000   0.79917008  -0.13768008    1.6933735    1.1622564   -4.7199228    6.4132962    2.8556298 
 5870000   0.79940286  -0.13259972    1.6989701    1.1625949   -4.7165822    6.4155523     2.861565 
 5880000   0.79864133  -0.12496482    1.6980416    1.1614874   -4.7170402    6.4150818    2.8595289 
 5890000    0.8029681  -0.11864744    1.6886348    1.1677799   -4.7253556    6.4139904    2.8564147 
 5900000   0.80115896  -0.15258234    1.6990424    1.1651488   -4.7152082    6.4142507    2.8641913 
 5910000   0.79378476  -0.12132389    1.6938929    1.1544243   -4.7201869    6.4140798    2.8483172 
 5920000    0.8063862  -0.13378493    1.6950777     1.172751   -4.7198325    6.4149102    2.8678287 
 5930000   0.79504493  -0.11482406    1.6943975     1.156257   -4.7164282    6.4108257    2.8506545 
 5940000   0.80180908 -0.087796301    1.6971076    1.1660943   -4.7171642    6.4142718    2.8632019 
 5950000   0.80127827  -0.10901867    1.6992351    1.1653223   -4.7176302    6.4168653    2.8645574 
 5960000   0.80097486  -0.11192684    1.6906988    1.1648811   -4.7223482     6.413047    2.8555799 
 5970000   0.80607936  -0.13960261    1.6942306    1.1723047   -4.7214834     6.415714    2.8665353 
 5980000   0.80012553  -0.11287815    1.6954677    1.1636459   -4.7194767    6.4149443    2.8591136 
 5990000   0.80372223  -0.14875009    1.6938078    1.1688767   -4.7185623      6.41237    2.8626844 
 6000000   0.79500066  -0.14539491    1.6854317    1.1561926   -4.7297124    6.4151441    2.8416243 
Loop time of 52523.1 on 216 procs for 6000000 steps with 27950 atoms

Performance: 49349.671 tau/day, 114.235 timesteps/s
99.8% CPU use with 216 MPI tasks x 1 OpenMP threads

MPI task timing breakdown:
Section |  min time  |  avg time  |  max time  |%varavg| %total
---------------------------------------------------------------
Pair    | 630.29     | 690.19     | 764.74     | 110.3 |  1.31
Bond    | 14.657     | 16.694     | 19.413     |  20.8 |  0.03
Kspace  | 45415      | 45591      | 45719      |  29.0 | 86.80
Neigh   | 677.76     | 717.19     | 759.43     |  67.5 |  1.37
Comm    | 1316.5     | 1591       | 1822.4     | 322.7 |  3.03
Output  | 2.6093     | 2.6602     | 2.6709     |   0.4 |  0.01
Modify  | 3260       | 3397.7     | 3589.3     | 136.2 |  6.47
Other   |            | 516.6      |            |       |  0.98

Nlocal:    129.398 ave 165 max 109 min
Histogram: 8 29 51 60 34 10 4 7 8 5
Nghost:    956.954 ave 1076 max 904 min
Histogram: 28 44 41 43 23 22 9 2 1 3
Neighs:    4735.66 ave 7011 max 3591 min
Histogram: 9 41 67 49 16 8 6 7 6 7

Total # of neighbors = 1022902
Ave neighs/atom = 36.5976
Ave special neighs/atom = 0.62254
Neighbor list builds = 807033
Dangerous builds = 0
System init for write_restart ...
PPPM initialization ...
  using 12-bit tables for long-range coulomb (src/kspace.cpp:332)
  G vector (1/distance) = 1.11672
  grid = 81 81 81
  stencil order = 5
  estimated absolute RMS force accuracy = 0.000130558
  estimated relative force accuracy = 0.000130558
  using double precision FFTW3
  3d grid and FFT values/proc = 6859 2835
WARNING: Neighbor exclusions used with KSpace solver may give inconsistent Coulombic energies (src/neighbor.cpp:486)
Neighbor list info ...
  update every 1 steps, delay 0 steps, check yes
  max neighbors/atom: 2000, page size: 100000
  master list distance cutoff = 2.8
  ghost atom cutoff = 2.8
  binsize = 1.4, bins = 24 24 24
  12 neighbor lists, perpetual/occasional/extra = 2 10 0
  (1) pair lj/cut, perpetual
      attributes: half, newton on
      pair build: half/bin/newton
      stencil: half/bin/3d/newton
      bin: standard
  (2) pair coul/long, perpetual, skip from (1)
      attributes: half, newton on
      pair build: skip
      stencil: none
      bin: none
  (3) compute rdf, occasional, copy from (1)
      attributes: half, newton on
      pair build: copy
      stencil: none
      bin: none
  (4) compute rdf, occasional, copy from (1)
      attributes: half, newton on
      pair build: copy
      stencil: none
      bin: none
  (5) compute rdf, occasional, copy from (1)
      attributes: half, newton on
      pair build: copy
      stencil: none
      bin: none
  (6) compute rdf, occasional, copy from (1)
      attributes: half, newton on
      pair build: copy
      stencil: none
      bin: none
  (7) compute rdf, occasional, copy from (1)
      attributes: half, newton on
      pair build: copy
      stencil: none
      bin: none
  (8) compute rdf, occasional, copy from (1)
      attributes: half, newton on
      pair build: copy
      stencil: none
      bin: none
  (9) compute rdf, occasional, copy from (1)
      attributes: half, newton on
      pair build: copy
      stencil: none
      bin: none
  (10) compute rdf, occasional, copy from (1)
      attributes: half, newton on
      pair build: copy
      stencil: none
      bin: none
  (11) compute rdf, occasional, copy from (1)
      attributes: half, newton on
      pair build: copy
      stencil: none
      bin: none
  (12) compute rdf, occasional, copy from (1)
      attributes: half, newton on
      pair build: copy
      stencil: none
      bin: none
PPPM initialization ...
  using 12-bit tables for long-range coulomb (src/kspace.cpp:332)
  G vector (1/distance) = 1.11672
  grid = 81 81 81
  stencil order = 5
  estimated absolute RMS force accuracy = 0.000130558
  estimated relative force accuracy = 0.000130558
  using double precision FFTW3
  3d grid and FFT values/proc = 6859 2835
WARNING: Neighbor exclusions used with KSpace solver may give inconsistent Coulombic energies (src/neighbor.cpp:486)
Neighbor list info ...
  update every 1 steps, delay 0 steps, check yes
  max neighbors/atom: 2000, page size: 100000
  master list distance cutoff = 2.8
  ghost atom cutoff = 2.8
  binsize = 1.4, bins = 24 24 24
  12 neighbor lists, perpetual/occasional/extra = 2 10 0
  (1) pair lj/cut, perpetual
      attributes: half, newton on
      pair build: half/bin/newton
      stencil: half/bin/3d/newton
      bin: standard
  (2) pair coul/long, perpetual, skip from (1)
      attributes: half, newton on
      pair build: skip
      stencil: none
      bin: none
  (3) compute rdf, occasional, copy from (1)
      attributes: half, newton on
      pair build: copy
      stencil: none
      bin: none
  (4) compute rdf, occasional, copy from (1)
      attributes: half, newton on
      pair build: copy
      stencil: none
      bin: none
  (5) compute rdf, occasional, copy from (1)
      attributes: half, newton on
      pair build: copy
      stencil: none
      bin: none
  (6) compute rdf, occasional, copy from (1)
      attributes: half, newton on
      pair build: copy
      stencil: none
      bin: none
  (7) compute rdf, occasional, copy from (1)
      attributes: half, newton on
      pair build: copy
      stencil: none
      bin: none
  (8) compute rdf, occasional, copy from (1)
      attributes: half, newton on
      pair build: copy
      stencil: none
      bin: none
  (9) compute rdf, occasional, copy from (1)
      attributes: half, newton on
      pair build: copy
      stencil: none
      bin: none
  (10) compute rdf, occasional, copy from (1)
      attributes: half, newton on
      pair build: copy
      stencil: none
      bin: none
  (11) compute rdf, occasional, copy from (1)
      attributes: half, newton on
      pair build: copy
      stencil: none
      bin: none
  (12) compute rdf, occasional, copy from (1)
      attributes: half, newton on
      pair build: copy
      stencil: none
      bin: none
Setting up Verlet run ...
  Unit style    : lj
  Current step  : 6000000
  Time step     : 0.005
Per MPI rank memory allocation (min/avg/max) = 17.59 | 18.98 | 19.64 Mbytes
Step Lx Ly Lz Press Pxx Pyy Pzz PotEng Temp 
 6000000    32.531758    32.531758    32.531758  -0.28978601  -0.16234142  -0.25648945  -0.45052717    1.6854317   0.79500066 
 6000010    33.182393     32.21124     32.21124 -0.081029936  -0.91973325   0.30861516   0.36802829    1.6996716     0.796987 
 6000020    33.833029    31.900013    31.900013 -0.051877775  -0.98513295   0.40546713    0.4240325    1.7136205   0.81022791 
 6000030    34.483664    31.597637    31.597637  0.030619586   -1.1694658   0.59640958   0.66491498    1.7265702   0.82581865 
 6000040    35.134299    31.303699    31.303699   0.13638904    -1.150234   0.81049722   0.74890391    1.7472691   0.84025758 
 6000050    35.784934    31.017814    31.017814   0.17023756   -1.1422363   0.86888396   0.78406504    1.7617144   0.85730544 
 6000060    36.435569    30.739622    30.739622   0.33719724   -1.0704393     1.066534     1.015497    1.7889691   0.86650102 
 6000070    37.086204    30.468783    30.468783   0.39589637   -0.9422937    1.0853856    1.0445972    1.8071956   0.88129985 
 6000080     37.73684    30.204979    30.204979   0.48450103  -0.78946085    1.1661211    1.0768428    1.8149699   0.90085663 
 6000090    38.387475    29.947911    29.947911   0.60179371  -0.71616475    1.2852234    1.2363225    1.8242647   0.91776146 
 6000100     39.03811    29.697296    29.697296   0.58444869  -0.73365342     1.236226    1.2507735     1.843465   0.92771997 
Loop time of 1.11031 on 216 procs for 100 steps with 27950 atoms

Performance: 38908.065 tau/day, 90.065 timesteps/s
99.8% CPU use with 216 MPI tasks x 1 OpenMP threads

MPI task timing breakdown:
Section |  min time  |  avg time  |  max time  |%varavg| %total
---------------------------------------------------------------
Pair    | 0.0078199  | 0.011038   | 0.025579   |   2.7 |  0.99
Bond    | 0.00010276 | 0.0002129  | 0.00038028 |   0.0 |  0.02
Kspace  | 0.77169    | 0.79415    | 0.81331    |   0.8 | 71.53
Neigh   | 0.041838   | 0.04571    | 0.049208   |   0.6 |  4.12
Comm    | 0.046957   | 0.065797   | 0.087768   |   3.4 |  5.93
Output  | 0.0068614  | 0.0098074  | 0.013125   |   1.0 |  0.88
Modify  | 0.093618   | 0.11874    | 0.14623    |   3.0 | 10.69
Other   |            | 0.06486    |            |       |  5.84

Nlocal:    129.398 ave 161 max 112 min
Histogram: 11 29 58 52 31 12 2 10 5 6
Nghost:    964.866 ave 1077 max 911 min
Histogram: 23 41 40 46 28 18 11 5 3 1
Neighs:    4751.58 ave 7005 max 3518 min
Histogram: 6 28 72 53 21 9 9 8 6 4

Total # of neighbors = 1026341
Ave neighs/atom = 36.7206
Ave special neighs/atom = 0.62254
Neighbor list builds = 49
Dangerous builds = 0
PPPM initialization ...
  using 12-bit tables for long-range coulomb (src/kspace.cpp:332)
  G vector (1/distance) = 1.13018
  grid = 96 80 80
  stencil order = 5
  estimated absolute RMS force accuracy = 0.000106369
  estimated relative force accuracy = 0.000106369
  using double precision FFTW3
  3d grid and FFT values/proc = 7581 3360
WARNING: Neighbor exclusions used with KSpace solver may give inconsistent Coulombic energies (src/neighbor.cpp:486)
Neighbor list info ...
  update every 1 steps, delay 0 steps, check yes
  max neighbors/atom: 2000, page size: 100000
  master list distance cutoff = 2.8
  ghost atom cutoff = 2.8
  binsize = 1.4, bins = 28 22 22
  12 neighbor lists, perpetual/occasional/extra = 2 10 0
  (1) pair lj/cut, perpetual
      attributes: half, newton on
      pair build: half/bin/newton
      stencil: half/bin/3d/newton
      bin: standard
  (2) pair coul/long, perpetual, skip from (1)
      attributes: half, newton on
      pair build: skip
      stencil: none
      bin: none
  (3) compute rdf, occasional, copy from (1)
      attributes: half, newton on
      pair build: copy
      stencil: none
      bin: none
  (4) compute rdf, occasional, copy from (1)
      attributes: half, newton on
      pair build: copy
      stencil: none
      bin: none
  (5) compute rdf, occasional, copy from (1)
      attributes: half, newton on
      pair build: copy
      stencil: none
      bin: none
  (6) compute rdf, occasional, copy from (1)
      attributes: half, newton on
      pair build: copy
      stencil: none
      bin: none
  (7) compute rdf, occasional, copy from (1)
      attributes: half, newton on
      pair build: copy
      stencil: none
      bin: none
  (8) compute rdf, occasional, copy from (1)
      attributes: half, newton on
      pair build: copy
      stencil: none
      bin: none
  (9) compute rdf, occasional, copy from (1)
      attributes: half, newton on
      pair build: copy
      stencil: none
      bin: none
  (10) compute rdf, occasional, copy from (1)
      attributes: half, newton on
      pair build: copy
      stencil: none
      bin: none
  (11) compute rdf, occasional, copy from (1)
      attributes: half, newton on
      pair build: copy
      stencil: none
      bin: none
  (12) compute rdf, occasional, copy from (1)
      attributes: half, newton on
      pair build: copy
      stencil: none
      bin: none
Setting up Verlet run ...
  Unit style    : lj
  Current step  : 6000100
  Time step     : 0.005
Per MPI rank memory allocation (min/avg/max) = 17.65 | 19.05 | 19.72 Mbytes
Step Lx Ly Lz Press Pxx Pyy Pzz PotEng Temp 
 6000100     39.03811    29.697296    29.697296   0.42862473  -0.84950402    1.0638905    1.0714878    1.8479264   0.92771997 
 6010000     39.03811    29.697296    29.697296  -0.17924334  -0.19694426  -0.14265649  -0.19812926    1.6931296   0.79860552 
 6020000     39.03811    29.697296    29.697296 -0.073980351 -0.063422422 -0.066000868 -0.092517762    1.6968401    0.8008505 
 6030000     39.03811    29.697296    29.697296  -0.15977987  -0.10197286  -0.25965077  -0.11771599    1.6970369   0.79879657 
 6040000     39.03811    29.697296    29.697296  -0.15522429  -0.19725551  -0.16359416   -0.1048232    1.6896885   0.80577796 
 6050000     39.03811    29.697296    29.697296  -0.15659111 -0.078129845   -0.2145132   -0.1771303     1.687728   0.81207379 
 6060000     39.03811    29.697296    29.697296  -0.14902799   -0.1232248  -0.18778209  -0.13607709    1.6855565     0.800896 
 6070000     39.03811    29.697296    29.697296  -0.15707204  -0.19267419  -0.15849112  -0.12005082    1.6879924   0.80122664 
 6080000     39.03811    29.697296    29.697296  -0.12625287  -0.10367704  -0.10743916   -0.1676424    1.6906485   0.79934116 
 6090000     39.03811    29.697296    29.697296  -0.11608633 -0.081089319  -0.14906815  -0.11810152    1.6948138   0.79796879 
 6100000     39.03811    29.697296    29.697296  -0.10324052 -0.091224244 -0.080207669  -0.13828963    1.6880128   0.80467693 
 6100100     39.03811    29.697296    29.697296  -0.10588905 -0.073698518  -0.14767871  -0.09628991    1.6929202    0.8042413 
Loop time of 905.36 on 216 procs for 100000 steps with 27950 atoms

Performance: 47715.818 tau/day, 110.453 timesteps/s
99.8% CPU use with 216 MPI tasks x 1 OpenMP threads

MPI task timing breakdown:
Section |  min time  |  avg time  |  max time  |%varavg| %total
---------------------------------------------------------------
Pair    | 8.5783     | 11.039     | 20.97      |  71.9 |  1.22
Bond    | 0.13404    | 0.23054    | 0.35636    |   8.1 |  0.03
Kspace  | 775.55     | 791.72     | 802.05     |  22.7 | 87.45
Neigh   | 11.397     | 12.052     | 12.706     |   8.7 |  1.33
Comm    | 28.466     | 37.214     | 49.458     |  84.8 |  4.11
Output  | 0.039346   | 0.039385   | 0.039945   |   0.0 |  0.00
Modify  | 36.704     | 41.497     | 47.453     |  39.3 |  4.58
Other   |            | 11.57      |            |       |  1.28

Nlocal:    129.398 ave 173 max 114 min
Histogram: 20 69 64 31 10 7 6 4 4 1
Nghost:    964.194 ave 1054 max 905 min
Histogram: 5 39 36 38 30 30 20 10 6 2
Neighs:    4736.34 ave 7467 max 3799 min
Histogram: 25 83 53 25 3 11 6 3 4 3

Total # of neighbors = 1023049
Ave neighs/atom = 36.6028
Ave special neighs/atom = 0.62254
Neighbor list builds = 13475
Dangerous builds = 0
Total wall time: 17:11:42
