ITEM: TIMESTEP
0
ITEM: NUMBER OF ATOMS
950
ITEM: BOX BOUNDS pp pp pp
7.3412088962025734e-01 3.3265879110386273e+01
7.3412088962025734e-01 3.3265879110386273e+01
7.3412088962025734e-01 3.3265879110386273e+01
ITEM: ATOMS id mol type x y z 
20630 0 5 1.10338 3.24574 1.57091 
26734 0 5 2.55756 2.24352 2.99473 
8997 0 5 2.45083 4.10769 6.77081 
25680 0 5 1.70787 5.59034 6.27981 
7058 0 5 4.52507 1.62134 10.9659 
24347 0 5 2.15505 5.94017 10.4031 
17707 0 5 3.43559 2.50921 12.225 
17029 0 5 0.968381 2.23486 16.4904 
23132 0 5 4.74331 1.68466 16.7377 
21130 0 5 2.65249 1.81404 19.6572 
18507 0 5 4.65923 1.73903 20.0925 
19208 0 5 2.2878 4.04439 19.7899 
18602 0 5 2.28524 5.28779 19.3666 
3137 0 5 1.85793 5.15918 21.6884 
10810 0 5 4.75435 4.52627 23.7322 
12122 0 5 5.92373 5.00089 25.9888 
6325 0 5 1.47591 4.94192 28.3026 
13473 0 5 3.43606 1.53526 30.3669 
22194 0 5 2.70031 3.36079 29.9262 
22904 0 5 5.21837 5.28507 31.4133 
14321 0 5 1.84005 6.10129 31.6988 
15083 0 5 1.04255 7.11854 0.974932 
1838 0 5 3.29732 10.6783 2.10633 
13640 0 5 5.33297 10.164 1.37494 
8162 0 5 1.30226 7.22585 3.96263 
23723 0 5 2.10418 6.21439 3.32491 
9682 0 5 4.23596 9.44711 3.16317 
16679 0 5 1.99092 10.6776 3.65669 
677 0 5 5.66971 10.9862 4.20002 
15852 0 5 1.46892 7.97104 5.58729 
20356 0 5 4.22252 9.05856 5.97031 
6434 0 5 3.36303 8.4346 6.11231 
4311 0 5 5.89022 11.5427 5.00472 
17683 0 5 5.32349 11.3134 6.21964 
19138 0 5 1.85563 8.87572 8.34644 
13913 0 5 1.63997 10.0993 9.67135 
11464 0 5 3.61597 10.4078 10.5317 
13755 0 5 4.49987 7.72715 13.9568 
21396 0 5 5.38309 6.6206 13.8273 
3985 0 5 4.70618 8.4353 14.8103 
18536 0 5 4.95994 11.1839 13.7542 
17815 0 5 5.46162 10.5843 16.6771 
18902 0 5 4.94765 10.7771 15.7772 
15928 0 5 4.42634 10.5512 16.6688 
5755 0 5 4.99963 6.38903 17.2223 
538 0 5 2.40303 10.2334 17.9068 
7219 0 5 3.38367 10.2085 18.2924 
7283 0 5 5.45717 10.3098 17.7728 
13637 0 5 2.75678 7.24687 19.1036 
13669 0 5 4.8454 6.22981 20.0176 
14183 0 5 6.15469 6.80185 20.4631 
15674 0 5 1.38737 7.9754 18.87 
19751 0 5 5.49554 7.23935 21.2895 
18840 0 5 4.3369 10.8132 20.9299 
24894 0 5 1.24929 8.66418 24.2128 
25049 0 5 5.71952 10.1138 23.8596 
14407 0 5 5.52394 8.2579 24.636 
7756 0 5 1.79467 7.13761 28.7703 
12535 0 5 4.34096 7.29508 28.0949 
23721 0 5 1.78454 8.05966 29.4553 
6863 0 5 1.15207 6.81934 29.6772 
26048 0 5 3.17596 7.82172 30.9197 
22984 0 5 2.6291 7.0254 31.3972 
10783 0 5 2.67342 9.42019 29.9034 
13015 0 5 0.787581 7.55414 32.3474 
488 0 5 1.52716 7.82414 33.0125 
3143 0 5 3.49545 6.94426 33.114 
3560 0 5 2.66274 6.53065 32.3003 
23373 0 5 3.39315 7.34146 32.0001 
1284 0 5 0.916394 8.85087 32.8251 
18672 0 5 2.1719 9.08739 31.7167 
18033 0 5 2.11377 8.53004 32.7083 
5356 0 5 4.36917 12.6113 2.33458 
2952 0 5 4.9166 11.8721 1.89998 
13205 0 5 3.74506 11.8703 4.06281 
25834 0 5 5.22927 12.5023 2.72969 
20037 0 5 5.5272 13.099 3.60357 
15547 0 5 4.47945 13.1979 3.15069 
16266 0 5 3.73126 13.927 3.61067 
17552 0 5 4.7688 13.894 3.95434 
9201 0 5 4.11654 12.2782 4.98895 
23030 0 5 4.83208 11.5856 4.62357 
20059 0 5 5.14517 12.2905 5.39486 
23896 0 5 1.05579 14.2756 4.54899 
7442 0 5 4.0687 14.2826 4.51476 
12465 0 5 5.67274 13.7178 4.43738 
13645 0 5 5.30962 12.7678 8.64865 
24251 0 5 4.93871 11.5922 8.66472 
5548 0 5 1.81022 14.3835 8.10193 
16622 0 5 1.33799 12.0154 14.2287 
16786 0 5 4.57319 11.9535 14.3251 
2397 0 5 3.95526 12.9935 16.8879 
11135 0 5 3.3096 12.5227 16.3707 
18505 0 5 0.863475 15.045 15.7596 
21599 0 5 5.24178 13.8528 15.2385 
12487 0 5 4.53944 12.3161 17.3271 
7049 0 5 5.4559 12.2387 17.8383 
18798 0 5 3.88954 11.9472 23.2049 
6196 0 5 2.18268 15.5283 24.909 
22653 0 5 2.59905 14.6214 28.8164 
6668 0 5 6.142 13.4649 30.7059 
23761 0 5 5.44126 12.5747 32.1107 
103 0 5 2.11501 15.1193 32.1114 
11229 0 5 5.46703 18.3879 1.59778 
7227 0 5 1.32154 19.7035 0.799482 
18009 0 5 0.75592 19.8148 6.59898 
19680 0 5 2.77163 18.9994 7.34166 
11700 0 5 4.95206 17.9204 10.8722 
21551 0 5 6.09149 20.1696 11.9766 
12371 0 5 4.93597 21.2711 13.2566 
24699 0 5 4.61249 22.007 12.5633 
9707 0 5 5.791 19.6873 13.9181 
11423 0 5 4.30178 22.112 13.5673 
3122 0 5 5.54494 20.6755 14.1285 
23312 0 5 1.33705 20.612 15.5027 
19310 0 5 5.69476 21.0961 18.0585 
16807 0 5 1.87475 17.6484 19.8391 
26651 0 5 2.0937 21.1915 22.3476 
1610 0 5 2.90464 20.203 27.6554 
11262 0 5 3.8186 20.8697 27.6115 
10673 0 5 5.12186 20.9261 29.1316 
16702 0 5 6.04727 24.2213 2.18186 
8866 0 5 5.51223 23.8614 4.56735 
20624 0 5 1.83917 26.9733 4.91843 
15230 0 5 2.15717 23.0498 6.46287 
18586 0 5 4.3855 22.6158 6.25511 
6838 0 5 3.70013 23.2593 11.05 
7428 0 5 2.13313 24.077 13.9575 
13417 0 5 6.12135 22.6927 14.0422 
8408 0 5 1.90611 27.2227 16.3209 
10196 0 5 4.36683 23.3416 18.5442 
23824 0 5 5.10041 26.9081 18.4344 
7934 0 5 3.4659 27.5266 19.5461 
10529 0 5 1.23494 27.0732 21.3604 
13714 0 5 2.97797 26.182 22.3388 
21346 0 5 4.30026 25.3269 23.9089 
8059 0 5 2.22935 26.5013 23.4318 
7627 0 5 4.24985 27.5429 23.8947 
4104 0 5 4.14085 26.3883 23.9862 
21180 0 5 2.72413 24.283 24.5703 
10772 0 5 1.73092 26.9277 24.3172 
17537 0 5 3.24252 26.8051 25.5535 
25330 0 5 5.9372 26.4599 24.2562 
16097 0 5 0.931787 24.7949 26.4606 
22940 0 5 2.57296 22.66 28.6341 
19283 0 5 6.0653 24.4641 28.2884 
21912 0 5 2.22222 27.1516 28.5048 
15084 0 5 1.94227 23.4405 29.8896 
9085 0 5 0.876909 27.0668 30.5521 
16810 0 5 2.42275 24.433 32.2414 
26379 0 5 0.985188 25.7363 32.4666 
23862 0 5 1.36457 28.9315 4.04771 
6544 0 5 4.25113 28.2945 5.55762 
13479 0 5 3.68292 31.2636 5.53775 
3756 0 5 1.53871 31.7532 5.81416 
24063 0 5 4.32863 33.1583 5.50321 
4148 0 5 4.11233 31.0406 7.31434 
21134 0 5 5.34623 30.791 7.02135 
1177 0 5 5.5396 31.7938 7.14056 
26245 0 5 4.56882 32.8916 8.25039 
8411 0 5 2.88725 32.6832 12.3 
2857 0 5 3.13832 29.4979 13.4229 
15546 0 5 6.04493 28.3151 13.719 
21220 0 5 2.77634 28.5947 15.928 
12081 0 5 0.913258 29.932 19.2023 
1904 0 5 2.34632 31.4765 21.8978 
19615 0 5 2.29966 28.5078 23.4777 
24490 0 5 3.234 27.8712 25.7526 
14483 0 5 2.29648 29.646 26.6053 
11568 0 5 1.65191 29.2271 28.1697 
4424 0 5 4.55241 32.9146 28.4555 
20102 0 5 1.02328 31.4065 29.9882 
10198 0 5 1.32063 31.9025 32.3407 
25202 0 5 6.2623 2.19533 1.46618 
18830 0 5 8.17925 3.11418 2.37643 
3984 0 5 9.06885 2.95871 3.25337 
23827 0 5 9.97823 2.50338 4.37615 
8280 0 5 10.2329 1.62322 5.03023 
14622 0 5 10.9482 2.12851 5.42339 
10439 0 5 9.10729 4.49604 5.28793 
11056 0 5 11.5071 3.82749 6.57511 
2213 0 5 6.39468 5.15244 12.2381 
10378 0 5 6.604 3.7716 16.1101 
15226 0 5 9.97769 5.17289 15.4217 
4593 0 5 8.17055 6.01149 17.5527 
14465 0 5 9.02886 2.75193 20.1748 
14448 0 5 10.162 2.63388 20.2717 
14553 0 5 9.40454 5.30474 19.0305 
3892 0 5 6.95048 3.9507 23.2784 
1309 0 5 7.63444 2.00217 25.2375 
16421 0 5 6.78769 4.38182 25.8323 
6121 0 5 9.08549 3.28597 32.2679 
26450 0 5 7.9068 5.78878 33.239 
9411 0 5 9.89795 7.37747 1.37309 
13193 0 5 10.7014 6.65465 1.39466 
22484 0 5 8.40178 9.60855 1.17852 
23002 0 5 7.76167 10.4564 3.19241 
19458 0 5 7.45224 11.5494 5.5861 
15786 0 5 6.29156 6.45031 6.68094 
18178 0 5 8.44653 8.08377 7.17924 
21538 0 5 6.44375 9.0041 10.4106 
19754 0 5 9.92166 8.36991 10.1684 
6065 0 5 7.46794 7.70206 13.8368 
7105 0 5 9.18862 8.83085 13.4204 
9634 0 5 9.77306 6.40405 16.1454 
15487 0 5 9.82615 8.82029 17.9474 
9807 0 5 6.17633 6.66814 19.2853 
3076 0 5 10.2353 7.34271 19.5139 
25840 0 5 6.17155 8.20095 22.3678 
2362 0 5 6.26512 8.24369 21.3444 
5781 0 5 9.79763 10.2729 25.6559 
6851 0 5 11.5756 10.7566 27.4323 
24786 0 5 9.21741 7.07106 28.5745 
19412 0 5 7.68503 8.00484 29.0923 
7033 0 5 8.79475 9.56958 28.63 
5739 0 5 9.98134 10.4512 29.2166 
3077 0 5 10.4935 6.73644 32.7923 
10066 0 5 7.87023 13.7142 1.14317 
23845 0 5 6.99345 11.7499 2.74946 
11591 0 5 6.24032 12.484 3.01696 
8924 0 5 7.0875 12.5029 3.61892 
24777 0 5 6.47986 13.1368 4.13637 
580 0 5 8.47209 11.9969 5.72158 
7648 0 5 10.9316 16.8203 5.04731 
15435 0 5 6.5 11.9591 10.5624 
12528 0 5 10.26 16.3157 14.2222 
20075 0 5 6.53029 12.2619 16.1012 
26261 0 5 8.44028 14.9299 17.606 
9640 0 5 7.94154 14.5747 20.1502 
4056 0 5 10.9988 14.5821 21.2076 
13628 0 5 7.72543 12.8496 24.1854 
461 0 5 9.21118 12.3701 24.0513 
20999 0 5 8.36607 16.9335 25.3573 
12884 0 5 8.90555 14.0342 29.3999 
7792 0 5 8.23089 20.9876 0.984601 
16554 0 5 8.64884 19.3216 4.49541 
11989 0 5 11.5064 19.0039 5.53283 
16437 0 5 6.26874 18.844 9.32693 
20441 0 5 9.68388 17.872 10.3106 
21150 0 5 9.77657 19.6702 12.0368 
14477 0 5 6.74163 22.2472 12.1603 
14931 0 5 8.04248 20.8996 12.7027 
12157 0 5 6.72601 21.9045 14.0916 
1482 0 5 10.7424 21.9157 13.8113 
7765 0 5 8.66043 21.165 15.253 
5337 0 5 8.7112 17.6858 17.7128 
13157 0 5 8.76705 19.9709 19.8676 
5906 0 5 10.6671 20.5026 27.3319 
12488 0 5 7.88591 21.9813 27.7316 
6248 0 5 6.23296 17.604 29.1906 
15813 0 5 11.3595 22.3192 28.88 
9115 0 5 8.18899 19.9899 29.6863 
25580 0 5 10.7988 18.279 32.7678 
10481 0 5 7.22613 25.2877 3.5063 
203 0 5 9.65161 26.6678 3.75271 
4790 0 5 9.08732 27.8015 3.91417 
19691 0 5 11.5143 26.351 4.2077 
22373 0 5 11.4186 26.9789 2.7596 
23091 0 5 6.4417 26.2474 4.98091 
6737 0 5 10.7887 24.0695 8.98212 
14406 0 5 7.25088 23.5696 11.205 
17321 0 5 6.20908 23.0404 11.0789 
21205 0 5 10.8677 23.6201 10.2282 
3472 0 5 10.2205 25.6549 15.1708 
12953 0 5 9.45698 26.0371 13.9077 
3052 0 5 11.265 23.8119 16.4056 
8807 0 5 8.48264 24.4199 22.168 
4495 0 5 10.1021 25.4874 23.5076 
10394 0 5 9.17242 22.8852 25.2425 
23517 0 5 9.18947 25.5208 25.7496 
975 0 5 9.74053 23.3765 30.6815 
18093 0 5 8.13764 27.7032 32.7806 
3801 0 5 6.99189 30.3757 0.759258 
9350 0 5 9.88914 32.285 2.3398 
23450 0 5 10.1307 28.3447 4.45955 
5078 0 5 8.66826 30.6245 5.39089 
614 0 5 7.12645 32.064 5.57104 
2220 0 5 6.93025 28.1941 7.15688 
25154 0 5 11.4834 32.1872 6.83065 
11172 0 5 10.183 30.5462 11.1605 
21546 0 5 8.36053 28.6322 13.9431 
9491 0 5 8.06829 30.0404 15.115 
14314 0 5 9.58662 29.6472 16.6219 
23871 0 5 7.24597 29.0442 17.5737 
18394 0 5 7.11636 28.8835 18.728 
10831 0 5 8.75447 31.2338 19.7411 
3061 0 5 11.2145 29.8926 20.8921 
23009 0 5 9.90642 31.0341 22.9144 
25306 0 5 7.03827 31.6567 24.2349 
17721 0 5 10.3897 30.4482 26.9799 
20421 0 5 9.352 28.3078 30.2817 
16206 0 5 9.71774 28.9342 32.8775 
10403 0 5 16.6052 1.26411 0.780498 
11002 0 5 11.8977 2.51911 3.48024 
16717 0 5 12.5917 6.08823 3.16184 
6966 0 5 12.5572 0.830016 4.43651 
21500 0 5 12.6839 2.15914 6.90384 
10134 0 5 14.0148 2.66481 7.59923 
7056 0 5 14.2128 3.80061 9.11766 
5036 0 5 12.9408 5.95574 9.53139 
14221 0 5 16.6663 3.63611 10.1028 
21588 0 5 12.322 4.03504 13.6068 
22000 0 5 11.6389 2.26165 15.3361 
15092 0 5 15.7683 5.59208 17.1469 
20243 0 5 12.9564 1.06042 21.3773 
15409 0 5 13.3729 2.26356 25.5567 
22405 0 5 13.3933 2.78071 26.427 
5778 0 5 16.2794 3.67651 26.6936 
22396 0 5 15.1891 5.00482 27.7536 
16356 0 5 15.974 1.5124 29.5414 
18730 0 5 12.979 2.97672 29.3584 
10986 0 5 14.0176 1.72481 30.5595 
10097 0 5 16.3087 1.07387 30.5932 
734 0 5 16.2936 1.84996 31.3909 
2536 0 5 15.7449 2.85943 31.3102 
5769 0 5 14.6375 1.10115 32.7372 
3073 0 5 15.0686 6.91981 2.73469 
24376 0 5 14.1441 8.54039 3.47161 
1819 0 5 13.8654 9.43962 5.71236 
5354 0 5 15.6867 9.49417 4.54271 
17332 0 5 13.6775 9.8476 4.79968 
23837 0 5 16.3849 11.2773 4.62613 
6516 0 5 14.3368 11.3261 7.54332 
24006 0 5 15.3041 10.6807 6.86861 
3808 0 5 16.2282 10.9142 7.09242 
8952 0 5 15.4095 11.4107 7.65527 
5674 0 5 14.0999 7.86972 9.92803 
26848 0 5 11.6858 8.45801 10.9399 
10588 0 5 13.6573 8.62291 11.1152 
10040 0 5 12.5896 10.3715 11.6861 
14967 0 5 15.2001 7.03488 14.7044 
17547 0 5 13.3708 9.49217 14.2127 
17739 0 5 13.9275 8.65554 16.5318 
4691 0 5 12.8284 6.51408 18.5645 
14534 0 5 15.1976 7.10399 22.667 
6751 0 5 13.3139 7.96183 25.8523 
14398 0 5 16.1895 8.19072 24.7107 
24772 0 5 13.8106 9.35697 26.773 
11107 0 5 15.2711 8.55934 29.4936 
17194 0 5 16.6438 10.4438 28.3876 
5412 0 5 16.2342 14.9651 0.82775 
16975 0 5 15.2999 15.2479 1.26226 
8861 0 5 14.4829 15.6032 2.79862 
21507 0 5 15.8693 11.7811 5.33477 
3486 0 5 16.0152 12.5747 6.02842 
26264 0 5 16.9648 11.9664 5.25183 
12939 0 5 15.0083 13.1593 6.81594 
17358 0 5 16.607 11.711 7.67942 
1051 0 5 14.1691 13.651 7.4103 
1767 0 5 12.6608 12.7435 8.21128 
23058 0 5 13.5272 11.8974 8.01117 
6664 0 5 16.8137 12.4772 8.62089 
21832 0 5 15.9611 12.885 8.99894 
21785 0 5 13.1191 14.8153 8.10624 
21018 0 5 13.2298 11.8738 12.2738 
25170 0 5 13.4133 12.3842 17.6345 
6497 0 5 13.8151 14.3041 18.3432 
13757 0 5 13.1108 12.7327 21.1558 
4905 0 5 15.026 16.1711 21.3274 
14039 0 5 14.2772 15.5242 20.8108 
8014 0 5 13.0699 12.9955 23.2172 
6615 0 5 15.761 15.4357 23.1961 
22175 0 5 15.6456 15.6947 24.2401 
23390 0 5 13.4726 14.2873 27.1854 
12119 0 5 13.5375 14.5335 32.4961 
24057 0 5 16.7172 20.323 1.90173 
21158 0 5 16.6292 18.3966 6.68989 
10162 0 5 14.8207 20.8838 7.57949 
15722 0 5 13.1941 20.0424 9.49414 
20856 0 5 15.2249 21.9953 9.35852 
8916 0 5 16.4773 17.1716 10.2664 
1011 0 5 12.8356 21.6969 11.1816 
14486 0 5 13.3267 17.1249 12.5 
10930 0 5 14.5482 20.1714 16.3436 
24668 0 5 16.0276 20.1572 18.0281 
3410 0 5 12.2308 21.2206 21.3619 
20246 0 5 11.8228 22.1237 20.6852 
25688 0 5 16.9535 18.6317 23.8272 
2856 0 5 16.2983 18.2285 26.3334 
1593 0 5 16.1323 19.2686 26.6393 
23402 0 5 13.8712 18.6791 28.7127 
1526 0 5 16.7522 21.2655 29.2717 
8307 0 5 15.7391 20.6265 29.0152 
24257 0 5 12.4965 18.7305 31.4379 
17175 0 5 16.7039 22.5915 1.37339 
15777 0 5 12.6335 25.0638 0.951117 
3097 0 5 11.9057 27.4537 1.63123 
1048 0 5 15.7327 22.7443 2.79731 
8007 0 5 13.1416 24.2354 4.04457 
23683 0 5 13.4354 27.1499 2.62419 
11448 0 5 14.8029 25.3341 4.78915 
7118 0 5 13.1601 24.0593 8.0235 
25678 0 5 13.4584 26.5057 14.7854 
24548 0 5 13.7427 23.2258 15.3773 
9526 0 5 11.8447 24.491 15.549 
18181 0 5 15.4306 25.753 15.9142 
1824 0 5 12.5378 24.4872 19.9252 
2666 0 5 15.7091 25.231 18.8112 
23877 0 5 14.2753 26.1218 23.5633 
22853 0 5 12.1814 24.2604 26.2471 
18814 0 5 15.503 23.9358 30.4463 
10894 0 5 12.2532 24.6751 29.6517 
4282 0 5 16.0858 24.8605 31.0669 
6977 0 5 14.3362 24.9357 31.6389 
3453 0 5 15.7521 25.8101 31.625 
10975 0 5 12.3828 29.638 1.74958 
24635 0 5 12.7455 29.141 2.71699 
25949 0 5 12.5955 28.6099 4.10046 
26117 0 5 13.4629 28.7978 3.70896 
24122 0 5 16.4521 29.1572 2.85912 
9134 0 5 15.1222 31.4385 3.96435 
23017 0 5 13.3763 28.2277 4.68069 
1393 0 5 11.8312 28.0246 5.03142 
17105 0 5 12.7607 31.4326 13.2165 
22441 0 5 13.8894 28.1216 16.8598 
25279 0 5 15.4607 31.6048 17.4816 
3919 0 5 16.8887 27.8665 20.0631 
553 0 5 13.402 28.8336 21.9206 
20041 0 5 15.6887 30.6928 25.9855 
8873 0 5 14.6298 32.7855 25.0653 
17195 0 5 13.2303 32.811 26.6286 
23264 0 5 14.9426 32.106 30.5867 
6861 0 5 16.6601 32.4236 30.7383 
23636 0 5 11.7391 29.1497 33.148 
5663 0 5 14.7744 32.8494 31.5901 
1863 0 5 20.9244 4.38535 1.6363 
16576 0 5 21.8 1.13415 2.78616 
22650 0 5 17.9412 3.90304 4.15767 
10516 0 5 18.9899 5.33882 5.97213 
4502 0 5 17.6524 2.86104 7.94678 
18808 0 5 20.6771 3.48184 7.68008 
15773 0 5 21.624 4.04712 7.6903 
5667 0 5 17.6473 5.02989 6.19277 
24955 0 5 20.2149 5.46791 7.51219 
18483 0 5 21.1637 5.83817 7.88177 
17936 0 5 21.0195 3.78937 8.71274 
19888 0 5 17.6268 4.84873 8.59876 
4928 0 5 18.769 5.05619 8.91665 
5313 0 5 20.4812 5.58599 8.77674 
18397 0 5 21.7173 5.63809 8.97579 
9246 0 5 20.9297 3.48681 10.7269 
23884 0 5 17.4276 4.39397 10.5585 
4934 0 5 18.9483 2.63893 13.2593 
17502 0 5 22.2833 6.10449 11.7393 
6403 0 5 20.5551 1.52395 14.6124 
5705 0 5 22.3506 6.00048 16.9381 
18572 0 5 20.4607 0.745907 17.4102 
13422 0 5 20.0544 4.05406 18.0282 
26572 0 5 20.4517 3.66727 17.2471 
20074 0 5 19.8336 5.3983 18.0335 
20836 0 5 22.3352 2.42482 20.3189 
8424 0 5 18.5336 4.33526 18.9284 
15482 0 5 21.2696 5.25236 19.6757 
9697 0 5 19.6454 4.3965 20.7631 
26820 0 5 18.9593 2.01461 23.4696 
3120 0 5 17.3621 1.73155 24.4715 
16541 0 5 20.994 5.94453 26.2098 
23951 0 5 17.1461 0.913868 28.7674 
26665 0 5 17.3541 5.48321 29.067 
20430 0 5 19.7574 5.85967 31.1629 
12498 0 5 18.0673 2.5309 32.417 
16782 0 5 21.8095 3.55822 32.1915 
17361 0 5 20.3096 5.51536 32.1348 
4456 0 5 17.9736 9.14091 1.89747 
4330 0 5 17.4753 8.19915 3.72151 
818 0 5 17.6369 6.9276 4.74441 
20561 0 5 21.554 8.89401 4.61753 
15139 0 5 19.5049 10.7611 5.68421 
19896 0 5 21.7744 9.98777 5.39133 
10203 0 5 18.7548 6.99107 7.00217 
18495 0 5 17.9004 8.95527 8.9281 
14263 0 5 19.099 9.72829 8.52819 
21612 0 5 17.7783 10.6974 9.11887 
6968 0 5 19.6515 6.46046 10.2003 
10804 0 5 20.0934 7.35458 11.8331 
25369 0 5 17.0127 6.51493 13.9823 
14069 0 5 21.9224 6.77191 17.5551 
18659 0 5 21.3857 6.8353 18.6116 
1662 0 5 18.8063 8.47818 18.138 
10510 0 5 17.3052 9.60548 19.1614 
5599 0 5 19.7375 10.3191 20.706 
10350 0 5 17.9798 7.74927 23.2232 
2423 0 5 21.6487 8.51104 22.4405 
10709 0 5 20.6014 11.3449 22.4816 
738 0 5 20.7135 6.65024 27.1171 
10801 0 5 21.675 11.3665 27.7778 
6957 0 5 18.0472 8.1612 28.1383 
9160 0 5 20.5137 6.43304 30.6136 
13681 0 5 22.2854 8.80647 30.4432 
4007 0 5 20.6863 9.86265 29.7519 
14081 0 5 22.2806 11.3479 31.0946 
4891 0 5 17.9772 6.69684 32.975 
22923 0 5 21.4871 7.39983 32.9628 
5747 0 5 20.2089 8.22289 31.5866 
5321 0 5 21.9866 10.5101 31.5773 
16413 0 5 20.6107 12.0376 1.62902 
5961 0 5 17.9141 13.8818 1.04402 
19302 0 5 20.1957 16.8345 1.07729 
19282 0 5 20.7084 16.2344 3.04961 
5870 0 5 20.2137 11.7122 5.17601 
15455 0 5 18.3732 16.161 5.216 
4268 0 5 20.7294 16.5363 4.72926 
25885 0 5 21.7165 14.2832 9.74182 
20083 0 5 22.3949 13.5701 8.96659 
21567 0 5 19.2036 16.9376 11.2657 
51 0 5 19.3132 15.7172 10.9294 
23146 0 5 20.8222 11.8051 12.7267 
5662 0 5 21.5075 13.5232 13.3311 
23780 0 5 17.2171 12.9732 15.0323 
18804 0 5 17.6974 12.268 14.1898 
23981 0 5 17.6238 16.6956 13.5574 
4853 0 5 18.0272 12.8504 16.8583 
13697 0 5 22.3017 16.5886 15.8433 
13356 0 5 19.6769 11.6511 18.7187 
15858 0 5 20.5758 15.2289 17.7005 
13765 0 5 21.411 12.2492 20.2344 
1023 0 5 17.5058 14.884 24.4352 
14544 0 5 22.0473 12.4962 27.6403 
12851 0 5 17.6964 16.4219 26.0994 
14480 0 5 21.3059 16.7061 27.1046 
20706 0 5 18.3528 11.7131 29.0267 
17273 0 5 21.9793 13.3755 28.8899 
1330 0 5 18.1222 16.3918 28.8234 
22406 0 5 19.2023 15.4522 28.5252 
23953 0 5 21.7531 11.6118 29.9575 
1940 0 5 22.3481 12.3166 30.4327 
11066 0 5 17.8666 18.4262 2.07385 
21135 0 5 17.9262 17.492 1.40507 
20718 0 5 19.0514 17.1964 1.30555 
21073 0 5 18.8632 18.0309 2.00077 
25191 0 5 20.9507 17.2038 1.65339 
14467 0 5 20.742 18.0741 2.23836 
6626 0 5 18.7737 18.8899 2.49012 
21790 0 5 18.1651 20.2237 1.39971 
22640 0 5 21.8897 20.0873 2.47449 
15883 0 5 20.682 21.6259 2.4925 
17568 0 5 19.5504 17.4187 3.90061 
4429 0 5 20.4276 17.0682 3.77019 
6728 0 5 18.94 18.3267 5.69926 
1666 0 5 19.1564 18.2606 4.42857 
26143 0 5 20.3376 17.9863 4.38727 
2716 0 5 21.8293 19.1242 4.63439 
18964 0 5 19.0735 19.2342 10.3566 
20722 0 5 21.676 20.7414 10.1034 
9876 0 5 18.4358 20.158 12.9299 
21926 0 5 19.3225 18.0212 14.3862 
24429 0 5 20.766 19.6523 14.4762 
10028 0 5 17.4911 19.1457 16.2187 
3100 0 5 18.6515 18.4661 20.1389 
23487 0 5 18.0067 20.1389 22.7138 
15789 0 5 18.7184 18.5679 27.8164 
4432 0 5 20.6262 21.3837 27.5204 
3130 0 5 21.621 21.1534 27.5539 
4708 0 5 17.5953 20.6775 27.8905 
6145 0 5 21.202 17.4647 30.636 
13403 0 5 20.1629 18.8797 29.8651 
8687 0 5 18.041 22.1236 30.5786 
15035 0 5 19.5219 18.4425 31.5173 
23394 0 5 17.3719 21.6445 32.4638 
25628 0 5 19.4844 24.4488 2.54059 
23137 0 5 21.5332 26.5053 5.44236 
2908 0 5 19.2939 27.2838 7.52909 
12147 0 5 18.6474 23.8307 9.36062 
361 0 5 22.277 22.8395 9.58447 
21163 0 5 20.2679 26.9006 10.8909 
14993 0 5 19.5132 27.7258 11.3913 
26861 0 5 21.3369 26.016 12.4268 
5428 0 5 18.7804 26.4222 12.4846 
23214 0 5 18.9053 27.321 12.052 
963 0 5 19.7209 22.836 14.5002 
15790 0 5 19.9106 23.3027 16.304 
13541 0 5 20.2721 25.3708 16.6214 
7014 0 5 19.037 27.7752 15.3393 
5839 0 5 19.446 25.41 17.2198 
21075 0 5 18.6512 25.4689 19.4025 
6255 0 5 17.4542 26.8154 20.5289 
26234 0 5 22.1225 24.1597 23.4422 
12298 0 5 18.0431 22.6793 27.4565 
4165 0 5 21.8608 24.4405 26.6584 
5311 0 5 18.3631 25.1851 28.0002 
21067 0 5 21.5147 24.9615 28.7228 
19738 0 5 17.2481 24.9104 33.1948 
21191 0 5 19.4235 30.5773 0.778244 
26448 0 5 19.6706 32.0676 1.59512 
26916 0 5 20.3684 32.3796 5.23849 
21440 0 5 22.3208 32.4795 6.04734 
8209 0 5 18.1082 29.2206 7.77018 
20481 0 5 22.3367 31.5835 7.37333 
8753 0 5 20.4767 30.1509 8.85676 
18194 0 5 18.7031 29.5072 11.5595 
24930 0 5 19.9634 27.9897 10.5574 
5347 0 5 19.3753 28.7048 11.0869 
7860 0 5 22.1681 27.9133 11.2974 
18974 0 5 22.1164 28.8186 10.9111 
23880 0 5 19.9198 30.1203 10.0343 
8070 0 5 21.2661 30.8801 10.8265 
25531 0 5 22.0353 29.9738 10.7122 
308 0 5 18.8221 28.4321 11.9421 
19414 0 5 20.1628 28.7729 13.0202 
1275 0 5 20.7719 27.9895 12.5771 
11395 0 5 22.1296 29.1389 13.0612 
4653 0 5 19.9698 31.2235 11.5996 
24326 0 5 18.185 27.9988 13.4798 
21956 0 5 19.3267 29.4771 13.6802 
18052 0 5 19.4906 28.3948 13.8903 
23638 0 5 21.8706 28.2756 15.9621 
15896 0 5 21.9962 29.046 18.4265 
24790 0 5 18.3232 31.0173 17.3738 
1461 0 5 19.446 28.0395 19.8177 
11223 0 5 17.6504 31.2944 20.4801 
3977 0 5 19.4444 31.1319 19.1955 
15414 0 5 20.4489 31.0003 19.7119 
23619 0 5 21.3142 32.2963 19.6147 
26539 0 5 19.9617 30.2115 20.6668 
19456 0 5 21.8327 31.6753 23.5816 
7579 0 5 17.031 28.0477 25.6867 
19847 0 5 22.3828 30.7744 26.1524 
15182 0 5 21.748 28.7526 30.6185 
10989 0 5 20.1332 31.0828 30.7724 
5699 0 5 17.3487 33.1364 30.3571 
62 0 5 19.1455 32.7674 30.2329 
16318 0 5 22.6725 1.83926 2.51087 
6955 0 5 24.0113 5.53831 3.064 
18485 0 5 23.7136 3.35737 7.8421 
1754 0 5 26.219 5.86742 9.41853 
3066 0 5 25.11 4.58988 13.1551 
22843 0 5 24.2046 2.6869 14.1049 
2092 0 5 22.6403 5.08604 14.2525 
6381 0 5 23.6076 4.78835 16.7353 
6943 0 5 24.4592 5.49761 15.231 
20050 0 5 26.5396 1.0102 17.0336 
10904 0 5 22.4825 5.05552 17.0416 
25193 0 5 24.7837 2.77561 18.9577 
25939 0 5 26.7441 4.48824 20.0914 
26960 0 5 27.7903 4.71656 20.0989 
11626 0 5 23.8931 1.19981 21.9709 
22659 0 5 27.4155 4.02806 20.7103 
25327 0 5 23.3718 4.56266 22.008 
20372 0 5 22.6039 6.10561 23.9422 
12373 0 5 25.6289 2.25655 26.1108 
5486 0 5 22.6553 5.63238 29.4732 
1403 0 5 26.837 5.49297 29.9149 
2312 0 5 23.1831 11.0572 2.63573 
947 0 5 24.8316 9.57538 5.86181 
4306 0 5 23.8291 10.1558 7.25389 
2583 0 5 26.0001 9.84091 7.45354 
9942 0 5 26.6402 11.0994 6.73968 
11400 0 5 22.6329 6.23337 9.73194 
10455 0 5 24.2751 7.73446 8.36818 
3893 0 5 23.0125 9.00711 9.56113 
18681 0 5 26.8083 8.56887 12.3019 
4071 0 5 27.7949 9.06333 12.2107 
14127 0 5 26.9305 6.38482 14.1377 
23486 0 5 23.927 11.1543 17.6313 
19465 0 5 27.0881 10.8252 19.423 
3408 0 5 26.6336 9.39008 21.9264 
10822 0 5 23.2909 11.1304 29.1576 
24860 0 5 24.3898 10.8633 29.0793 
21468 0 5 23.9648 11.3611 29.9375 
12244 0 5 25.9663 10.8125 29.9421 
23768 0 5 25.6215 7.04263 32.7038 
4908 0 5 26.3522 9.73972 32.959 
17026 0 5 22.7331 11.3027 32.1515 
24757 0 5 24.0448 13.6295 1.12096 
17052 0 5 24.3303 12.0684 5.35227 
5725 0 5 23.0282 12.5886 9.11867 
13579 0 5 25.8155 14.9187 10.1356 
16687 0 5 23.1502 16.4684 10.1136 
23995 0 5 27.8072 16.3658 11.3294 
18284 0 5 27.325 13.8264 11.5847 
8409 0 5 24.8789 16.4319 13.0606 
19391 0 5 24.1378 15.9978 18.2143 
1332 0 5 26.3209 16.7097 17.3862 
12132 0 5 26.0141 12.7782 19.6668 
21528 0 5 25.332 15.7156 19.1065 
25359 0 5 24.2803 16.3464 19.3556 
3857 0 5 23.5352 13.5812 21.8689 
22492 0 5 27.0736 15.0523 23.4814 
7566 0 5 26.4989 15.5863 25.7798 
13012 0 5 22.8227 13.0906 27.8204 
3853 0 5 25.1239 12.8638 27.3841 
7024 0 5 27.7629 13.3187 26.5536 
2969 0 5 23.0757 15.6101 26.3441 
8447 0 5 25.811 12.9268 29.5508 
22274 0 5 23.3168 14.7701 28.8504 
14748 0 5 24.7274 13.7833 29.3756 
18099 0 5 22.5122 13.3158 29.8528 
1538 0 5 22.8151 12.2165 31.4243 
11601 0 5 24.4551 11.9557 30.4449 
21076 0 5 24.5639 12.9127 29.9575 
15525 0 5 24.8554 14.7178 31.1972 
17277 0 5 24.9873 12.0911 31.4963 
2833 0 5 27.3606 21.2797 1.62715 
217 0 5 26.4192 17.4316 4.24187 
24377 0 5 27.4033 20.0229 3.20026 
24642 0 5 26.7143 18.4973 5.93171 
2410 0 5 26.1435 22.2597 4.61022 
15031 0 5 27.3099 22.3419 4.97668 
19818 0 5 27.6891 19.333 6.58801 
10359 0 5 24.867 21.9936 6.40773 
2082 0 5 22.5798 18.7242 8.04471 
672 0 5 26.4336 17.6456 11.0835 
18857 0 5 26.2281 19.9019 12.8601 
25633 0 5 23.7183 20.9821 11.9413 
22939 0 5 25.5818 21.8384 12.2717 
20090 0 5 27.4782 21.5886 13.269 
4890 0 5 22.9813 17.2522 15.2281 
12584 0 5 23.452 18.3364 16.5622 
3811 0 5 23.4861 20.1154 16.4518 
9569 0 5 22.5919 21.1005 15.2783 
1934 0 5 25.1321 21.203 15.9 
4086 0 5 25.3704 22.2636 15.8824 
4700 0 5 23.7632 18.4446 17.6574 
23468 0 5 24.9102 17.8682 18.097 
14189 0 5 24.2361 18.5456 18.6322 
10684 0 5 25.7719 19.0302 17.3186 
7555 0 5 25.8916 21.9499 17.8057 
25794 0 5 26.8751 22.0479 17.4045 
26791 0 5 24.9213 18.674 19.5187 
24240 0 5 27.2282 22.2238 20.5879 
8942 0 5 25.8674 18.3961 20.9713 
5547 0 5 26.8269 17.396 20.944 
15728 0 5 25.1246 18.9431 20.671 
17697 0 5 26.4101 22.0562 24.1044 
20434 0 5 25.7763 19.9845 29.0247 
5727 0 5 23.7218 18.6455 31.7369 
22815 0 5 25.8162 17.9595 32.9814 
7063 0 5 27.8397 22.2604 32.4937 
11765 0 5 22.6568 23.6692 2.33104 
24524 0 5 24.358 23.1328 1.42773 
15876 0 5 23.3232 23.6441 4.78477 
19675 0 5 24.4016 23.3597 4.82193 
24694 0 5 26.178 24.0689 4.6312 
3798 0 5 26.6358 23.1853 4.57703 
1886 0 5 27.4025 23.9265 4.51806 
12203 0 5 24.0596 24.2898 4.76662 
11776 0 5 24.5304 25.1158 4.76476 
26212 0 5 27.2571 25.9173 4.52738 
11932 0 5 26.9368 24.896 4.5381 
26900 0 5 24.0195 26.1827 4.75856 
16545 0 5 23.7948 26.6811 5.66105 
6557 0 5 25.2191 26.0671 4.65074 
22130 0 5 25.5217 23.0871 6.48309 
77 0 5 24.5769 23.3444 6.58582 
4612 0 5 25.2205 24.2187 6.51607 
10677 0 5 26.6976 23.1074 6.51629 
6813 0 5 24.1011 24.2379 6.55701 
6140 0 5 24.6626 25.1098 6.48975 
23666 0 5 25.2481 25.9576 6.56399 
13907 0 5 25.7927 25.0196 6.50919 
11764 0 5 26.721 25.6404 7.26506 
890 0 5 26.8367 25.0369 6.36101 
4278 0 5 26.2699 25.9873 6.39174 
26243 0 5 25.5637 27.2772 6.2837 
1559 0 5 24.5831 26.8327 6.64851 
9011 0 5 25.2879 25.3991 8.84666 
7240 0 5 27.5578 25.8834 11.3975 
4103 0 5 26.9269 26.6442 10.7766 
16531 0 5 27.7257 26.9356 11.3744 
21342 0 5 26.039 26.3993 10.2482 
23874 0 5 22.7781 22.73 11.8198 
10182 0 5 27.4603 23.7258 13.218 
18418 0 5 27.5041 26.8377 12.3944 
26828 0 5 24.4499 24.1835 13.662 
8438 0 5 26.7337 24.2376 14.118 
10888 0 5 23.7507 23.3978 15.5521 
13340 0 5 23.6243 22.7726 16.5337 
22968 0 5 23.9469 23.8008 16.577 
26382 0 5 24.0103 22.5368 18.1812 
5067 0 5 25.0978 22.7188 18.075 
13130 0 5 24.2757 23.369 20.0688 
22488 0 5 22.6699 26.0622 22.5465 
4588 0 5 24.2808 24.7838 24.4467 
12992 0 5 23.4809 26.222 25.4384 
13690 0 5 23.1015 26.9093 27.124 
1337 0 5 24.1939 26.8463 27.4676 
12544 0 5 26.3655 25.6235 29.589 
23537 0 5 25.5239 26.7521 28.1304 
26611 0 5 23.2416 26.784 31.7985 
21145 0 5 25.4593 32.3325 2.08052 
12463 0 5 25.1662 31.5439 2.86818 
20296 0 5 22.8231 29.4825 4.66951 
26872 0 5 24.0485 31.4533 6.66569 
20309 0 5 23.3753 31.587 8.31975 
25131 0 5 27.3593 28.7569 10.3828 
26344 0 5 26.3767 28.3513 10.8431 
20195 0 5 27.4284 31.4211 10.1284 
7088 0 5 26.1446 28.6316 15.0933 
9540 0 5 22.6499 32.9821 14.1342 
11899 0 5 23.7117 28.99 18.3359 
4877 0 5 23.7548 30.4745 18.4731 
14161 0 5 25.2439 31.6749 19.4202 
22140 0 5 23.2923 32.9777 21.4076 
3629 0 5 23.245 28.684 25.9082 
4915 0 5 27.0547 30.4501 24.4276 
24210 0 5 25.0486 29.0923 26.3877 
25674 0 5 23.3319 30.9281 26.5415 
3022 0 5 22.5146 31.8848 26.3652 
25331 0 5 22.8402 28.4408 29.3579 
2718 0 5 25.1665 29.3138 28.6116 
15834 0 5 24.2547 30.1341 31.1837 
17737 0 5 23.942 32.6141 29.8676 
25594 0 5 25.7666 32.8942 31.3889 
7854 0 5 27.7239 33.1585 31.2312 
19133 0 5 28.2 4.88946 2.39299 
26563 0 5 30.3699 5.43013 2.11954 
9410 0 5 28.9549 1.55273 2.57608 
9797 0 5 30.5673 5.82847 4.22432 
10812 0 5 31.9283 5.15114 2.7327 
5088 0 5 31.599 5.76039 4.29648 
19882 0 5 30.9558 4.98495 4.49589 
19300 0 5 29.9886 4.75692 4.3618 
17691 0 5 32.5593 5.64082 4.36645 
26128 0 5 33.0096 4.69826 4.68075 
20655 0 5 31.1145 5.28153 6.30441 
3124 0 5 32.016 4.78422 6.47936 
23531 0 5 33.0661 5.342 6.33163 
6755 0 5 28.4716 1.71714 8.3681 
1853 0 5 28.073 5.55264 8.75223 
2319 0 5 30.3478 2.27003 9.93894 
18239 0 5 30.3881 1.71607 10.8889 
1135 0 5 32.2943 3.82314 10.3549 
16581 0 5 29.2962 2.58624 13.0717 
17718 0 5 29.4806 2.88763 16.774 
8609 0 5 31.0349 5.87371 16.042 
17115 0 5 31.8224 1.15893 18.1356 
15495 0 5 30.593 3.48052 17.9323 
21905 0 5 31.398 5.7419 20.2753 
25849 0 5 29.5332 4.18004 21.4797 
22887 0 5 33.0535 4.21213 21.3226 
18598 0 5 27.9238 2.45757 23.236 
18692 0 5 32.3426 4.55287 22.9573 
4329 0 5 31.5487 4.82956 28.0229 
1408 0 5 29.7895 3.04867 29.7948 
25177 0 5 29.1818 4.15663 32.2739 
14168 0 5 28.7312 5.42845 31.9883 
4807 0 5 28.0343 11.1053 1.85079 
7101 0 5 33.215 6.44019 4.16072 
16098 0 5 32.1006 6.60246 4.08032 
23510 0 5 32.8181 7.29295 3.93692 
14730 0 5 28.9091 11.4404 2.73904 
22632 0 5 30.5755 6.15639 5.99252 
16978 0 5 31.1517 7.65585 5.62733 
6313 0 5 30.325 7.10033 5.79912 
10052 0 5 31.5064 6.70771 5.98865 
25244 0 5 32.4819 6.71865 6.01744 
21017 0 5 33.2618 7.3716 5.81405 
16094 0 5 28.2472 10.8425 5.97425 
21499 0 5 28.1242 8.89931 8.98433 
24329 0 5 31.402 9.46445 8.37449 
5764 0 5 33.0703 11.4196 16.0943 
4925 0 5 28.4703 7.08712 19.2333 
9074 0 5 32.7585 7.71822 22.3344 
9121 0 5 30.4952 10.8745 21.8102 
7793 0 5 33.1606 6.78754 25.9906 
19801 0 5 31.279 10.1829 24.8153 
7036 0 5 29.5256 8.95039 30.2519 
24351 0 5 28.016 9.65027 31.2986 
19406 0 5 32.8534 8.77754 31.9618 
3383 0 5 30.3097 11.3695 33.2037 
23023 0 5 28.7936 14.4749 5.02978 
4514 0 5 29.7934 14.2691 6.13327 
26567 0 5 29.4499 13.6365 7.79875 
21784 0 5 32.167 13.5564 6.42355 
16561 0 5 32.4764 15.5992 7.40679 
6655 0 5 28.539 16.3328 9.26141 
5421 0 5 31.6139 12.0914 11.3432 