ITEM: TIMESTEP
0
ITEM: NUMBER OF ATOMS
900
ITEM: BOX BOUNDS pp pp pp
0.0000000000000000e+00 3.4000000000000000e+01
0.0000000000000000e+00 3.4000000000000000e+01
0.0000000000000000e+00 3.4000000000000000e+01
ITEM: ATOMS id mol type x y z 
1 0 3 0.5 0.5 0.5 
1917 0 3 3.8 3.8 2.5 
2763 0 3 2.7 2.7 3.5 
2705 0 3 0.5 4.9 3.5 
3602 0 3 0.5 1.6 4.5 
3716 0 3 3.8 4.9 4.5 
5460 0 3 1.6 0.5 6.5 
5516 0 3 3.8 4.9 6.5 
5525 0 3 4.9 4.9 6.5 
6360 0 3 1.6 0.5 7.5 
6422 0 3 4.9 1.6 7.5 
6305 0 3 0.5 4.9 7.5 
8104 0 3 0.5 3.8 9.5 
8217 0 3 3.8 3.8 9.5 
9005 0 3 0.5 4.9 10.5 
10920 0 3 3.8 0.5 12.5 
10924 0 3 4.9 3.8 12.5 
12664 0 3 2.7 3.8 14.5 
15362 0 3 2.7 1.6 17.5 
15356 0 3 1.6 4.9 17.5 
17101 0 3 0.5 0.5 19.5 
17225 0 3 4.9 4.9 19.5 
18058 0 3 1.6 2.7 20.5 
18005 0 3 0.5 4.9 20.5 
19920 0 3 3.8 0.5 22.5 
19864 0 3 2.7 3.8 22.5 
20818 0 3 3.8 2.7 23.5 
20756 0 3 1.6 4.9 23.5 
22562 0 3 2.7 1.6 25.5 
23463 0 3 2.7 2.7 26.5 
24301 0 3 0.5 0.5 27.5 
24419 0 3 3.8 1.6 27.5 
24423 0 3 4.9 2.7 27.5 
25201 0 3 0.5 0.5 28.5 
25320 0 3 3.8 0.5 28.5 
25322 0 3 4.9 1.6 28.5 
26104 0 3 0.5 3.8 29.5 
955 0 3 1.6 6 1.5 
1028 0 3 4.9 8.2 1.5 
952 0 3 1.6 9.3 1.5 
7206 0 3 0.5 6 8.5 
7266 0 3 2.7 6 8.5 
7311 0 3 3.8 10.4 8.5 
10930 0 3 4.9 10.4 12.5 
12608 0 3 0.5 8.2 14.5 
13630 0 3 4.9 10.4 15.5 
16206 0 3 0.5 6 18.5 
16207 0 3 0.5 7.1 18.5 
16267 0 3 2.7 7.1 18.5 
17229 0 3 4.9 9.3 19.5 
18969 0 3 2.7 9.3 21.5 
19928 0 3 4.9 8.2 22.5 
20826 0 3 4.9 6 23.5 
20829 0 3 4.9 9.3 23.5 
20751 0 3 1.6 10.4 23.5 
22506 0 3 0.5 6 25.5 
26215 0 3 3.8 6 29.5 
26228 0 3 4.9 8.2 29.5 
1874 0 3 2.7 14.8 2.5 
2714 0 3 0.5 14.8 3.5 
3735 0 3 4.9 15.9 4.5 
4635 0 3 4.9 15.9 5.5 
5473 0 3 2.7 13.7 6.5 
6435 0 3 4.9 15.9 7.5 
9110 0 3 3.8 11.5 10.5 
9049 0 3 1.6 12.6 10.5 
10032 0 3 4.9 12.6 11.5 
10814 0 3 0.5 14.8 12.5 
11810 0 3 3.8 11.5 13.5 
12612 0 3 0.5 12.6 14.5 
12648 0 3 1.6 13.7 14.5 
17171 0 3 2.7 11.5 19.5 
18012 0 3 0.5 12.6 20.5 
18974 0 3 2.7 14.8 21.5 
19812 0 3 0.5 12.6 22.5 
19848 0 3 1.6 13.7 22.5 
19847 0 3 1.6 14.8 22.5 
19846 0 3 1.6 15.9 22.5 
22549 0 3 1.6 12.6 25.5 
22514 0 3 0.5 14.8 25.5 
22606 0 3 3.8 15.9 25.5 
23411 0 3 0.5 11.5 26.5 
26111 0 3 0.5 11.5 29.5 
26114 0 3 0.5 14.8 29.5 
21 0 3 0.5 22.5 0.5 
2742 0 3 1.6 20.3 3.5 
3740 0 3 4.9 21.4 4.5 
4640 0 3 4.9 21.4 5.5 
5417 0 3 0.5 18.1 6.5 
5504 0 3 3.8 18.1 6.5 
5502 0 3 3.8 20.3 6.5 
6378 0 3 2.7 19.2 7.5 
7242 0 3 1.6 20.3 8.5 
8202 0 3 3.8 20.3 9.5 
9103 0 3 3.8 19.2 10.5 
9102 0 3 3.8 20.3 10.5 
9020 0 3 0.5 21.4 10.5 
10038 0 3 4.9 19.2 11.5 
10817 0 3 0.5 18.1 12.5 
10901 0 3 3.8 21.4 12.5 
11801 0 3 3.8 21.4 13.5 
12619 0 3 0.5 20.3 14.5 
12642 0 3 1.6 20.3 14.5 
13521 0 3 0.5 22.5 15.5 
14481 0 3 2.7 22.5 16.5 
16336 0 3 4.9 17 18.5 
16277 0 3 2.7 18.1 18.5 
16338 0 3 4.9 19.2 18.5 
18138 0 3 4.9 19.2 20.5 
18101 0 3 3.8 21.4 20.5 
19036 0 3 4.9 17 21.5 
19820 0 3 0.5 21.4 22.5 
21705 0 3 3.8 17 24.5 
21737 0 3 4.9 18.1 24.5 
21702 0 3 3.8 20.3 24.5 
22542 0 3 1.6 20.3 25.5 
23503 0 3 3.8 19.2 26.5 
24320 0 3 0.5 21.4 27.5 
25219 0 3 0.5 20.3 28.5 
26119 0 3 0.5 20.3 29.5 
3742 0 3 4.9 23.6 4.5 
3683 0 3 2.7 24.7 4.5 
4644 0 3 4.9 25.8 5.5 
7239 0 3 1.6 23.6 8.5 
7298 0 3 3.8 24.7 8.5 
7284 0 3 2.7 25.8 8.5 
9099 0 3 3.8 23.6 10.5 
10823 0 3 0.5 24.7 12.5 
11842 0 3 4.9 23.6 13.5 
12625 0 3 0.5 26.9 14.5 
13538 0 3 1.6 24.7 15.5 
14497 0 3 3.8 25.8 16.5 
15398 0 3 3.8 24.7 17.5 
18098 0 3 3.8 24.7 20.5 
18096 0 3 3.8 26.9 20.5 
18985 0 3 2.7 26.9 21.5 
23486 0 3 2.7 28 26.5 
24442 0 3 4.9 23.6 27.5 
25224 0 3 0.5 25.8 28.5 
26244 0 3 4.9 25.8 29.5 
993 0 3 3.8 30.2 1.5 
992 0 3 3.8 31.3 1.5 
990 0 3 2.7 32.4 1.5 
2729 0 3 0.5 31.3 3.5 
3687 0 3 2.7 29.1 4.5 
5432 0 3 1.6 31.3 6.5 
6387 0 3 2.7 29.1 7.5 
8249 0 3 4.9 31.3 9.5 
9034 0 3 1.6 29.1 10.5 
11730 0 3 0.5 32.4 13.5 
14550 0 3 4.9 32.4 16.5 
15394 0 3 3.8 29.1 17.5 
17248 0 3 4.9 30.2 19.5 
18150 0 3 4.9 32.4 20.5 
19834 0 3 1.6 29.1 22.5 
20790 0 3 2.7 32.4 23.5 
23429 0 3 0.5 31.3 26.5 
25231 0 3 1.6 32.4 28.5 
26249 0 3 4.9 31.3 29.5 
1081 0 3 7.1 0.5 1.5 
1140 0 3 8.2 0.5 1.5 
1143 0 3 9.3 2.7 1.5 
1144 0 3 9.3 3.8 1.5 
1979 0 3 6 1.6 2.5 
2878 0 3 6 2.7 3.5 
2937 0 3 8.2 3.8 3.5 
2936 0 3 8.2 4.9 3.5 
3785 0 3 7.1 4.9 4.5 
5583 0 3 7.1 2.7 6.5 
5584 0 3 7.1 3.8 6.5 
7436 0 3 8.2 4.9 8.5 
8278 0 3 6 2.7 9.5 
11100 0 3 10.4 0.5 12.5 
11938 0 3 8.2 2.7 13.5 
11943 0 3 9.3 2.7 13.5 
12841 0 3 9.3 0.5 14.5 
12845 0 3 9.3 4.9 14.5 
13742 0 3 9.3 1.6 15.5 
14577 0 3 6 3.8 16.5 
17342 0 3 9.3 1.6 19.5 
19978 0 3 6 2.7 22.5 
20996 0 3 10.4 4.9 23.5 
21777 0 3 6 3.8 24.5 
22681 0 3 7.1 0.5 25.5 
22678 0 3 6 2.7 25.5 
22677 0 3 6 3.8 25.5 
24479 0 3 6 1.6 27.5 
188 0 3 7.1 8.2 0.5 
172 0 3 6 9.3 0.5 
1075 0 3 6 6 1.5 
1134 0 3 8.2 7.1 1.5 
1090 0 3 7.1 10.4 1.5 
2890 0 3 7.1 10.4 3.5 
2950 0 3 9.3 10.4 3.5 
3775 0 3 6 6 4.5 
3786 0 3 7.1 6 4.5 
4686 0 3 7.1 6 5.5 
4688 0 3 7.1 8.2 5.5 
6550 0 3 9.3 10.4 7.5 
9295 0 3 10.4 6 10.5 
9233 0 3 8.2 8.2 10.5 
10087 0 3 7.1 7.1 11.5 
10191 0 3 10.4 10.4 11.5 
13748 0 3 9.3 8.2 15.5 
14571 0 3 6 10.4 16.5 
17271 0 3 6 10.4 19.5 
19149 0 3 9.3 9.3 21.5 
19975 0 3 6 6 22.5 
20095 0 3 10.4 6 22.5 
20947 0 3 9.3 7.1 23.5 
20932 0 3 8.2 9.3 23.5 
21850 0 3 9.3 10.4 24.5 
24535 0 3 8.2 6 27.5 
24546 0 3 9.3 6 27.5 
24533 0 3 8.2 8.2 27.5 
24548 0 3 9.3 8.2 27.5 
24532 0 3 8.2 9.3 27.5 
229 0 3 8.2 12.6 0.5 
1153 0 3 9.3 13.7 1.5 
2930 0 3 8.2 11.5 3.5 
2868 0 3 6 13.7 3.5 
3768 0 3 6 13.7 4.5 
4694 0 3 7.1 14.8 5.5 
4787 0 3 10.4 14.8 5.5 
4666 0 3 6 15.9 5.5 
7391 0 3 7.1 11.5 8.5 
7454 0 3 9.3 14.8 8.5 
8386 0 3 10.4 15.9 9.5 
9168 0 3 6 13.7 10.5 
11088 0 3 10.4 13.7 12.5 
11892 0 3 7.1 12.6 13.5 
11952 0 3 9.3 12.6 13.5 
11953 0 3 9.3 13.7 13.5 
13693 0 3 7.1 13.7 15.5 
13754 0 3 9.3 14.8 15.5 
15470 0 3 6 11.5 17.5 
15588 0 3 10.4 13.7 17.5 
18253 0 3 9.3 13.7 20.5 
19128 0 3 8.2 13.7 21.5 
20928 0 3 8.2 13.7 23.5 
20927 0 3 8.2 14.8 23.5 
21853 0 3 9.3 13.7 24.5 
21794 0 3 7.1 14.8 24.5 
21795 0 3 7.1 15.9 24.5 
22751 0 3 9.3 11.5 25.5 
22752 0 3 9.3 12.6 25.5 
23690 0 3 10.4 11.5 26.5 
23689 0 3 10.4 12.6 26.5 
261 0 3 9.3 22.5 0.5 
2956 0 3 9.3 17 3.5 
2897 0 3 7.1 18.1 3.5 
2921 0 3 8.2 21.4 3.5 
3763 0 3 6 19.2 4.5 
5681 0 3 10.4 21.4 6.5 
6556 0 3 9.3 17 7.5 
6497 0 3 7.1 18.1 7.5 
6557 0 3 9.3 18.1 7.5 
10160 0 3 9.3 21.4 11.5 
11865 0 3 6 17 13.5 
11898 0 3 7.1 19.2 13.5 
11959 0 3 9.3 20.3 13.5 
12798 0 3 7.1 19.2 14.5 
12821 0 3 8.2 21.4 14.5 
13701 0 3 7.1 22.5 15.5 
14661 0 3 9.3 22.5 16.5 
15499 0 3 7.1 20.3 17.5 
15501 0 3 7.1 22.5 17.5 
15580 0 3 10.4 22.5 17.5 
17261 0 3 6 21.4 19.5 
17321 0 3 8.2 21.4 19.5 
18161 0 3 6 21.4 20.5 
19181 0 3 10.4 21.4 21.5 
20898 0 3 7.1 19.2 23.5 
22699 0 3 7.1 20.3 25.5 
22780 0 3 10.4 22.5 25.5 
23682 0 3 10.4 20.3 26.5 
215 0 3 8.2 28 0.5 
2078 0 3 10.4 24.7 2.5 
4715 0 3 8.2 28 5.5 
10118 0 3 8.2 24.7 11.5 
11004 0 3 7.1 25.8 12.5 
10955 0 3 6 28 12.5 
12805 0 3 7.1 26.9 14.5 
13763 0 3 9.3 24.7 15.5 
13656 0 3 6 26.9 15.5 
16402 0 3 7.1 23.6 18.5 
16403 0 3 7.1 24.7 18.5 
16416 0 3 8.2 26.9 18.5 
17319 0 3 8.2 23.6 19.5 
18205 0 3 7.1 26.9 20.5 
19163 0 3 9.3 24.7 21.5 
20919 0 3 8.2 23.6 23.5 
20856 0 3 6 26.9 23.5 
21755 0 3 6 28 24.5 
22719 0 3 8.2 23.6 25.5 
22704 0 3 7.1 25.8 25.5 
23677 0 3 10.4 25.8 26.5 
24517 0 3 8.2 25.8 27.5 
25478 0 3 10.4 24.7 28.5 
26258 0 3 6 24.7 29.5 
2854 0 3 6 29.1 3.5 
2914 0 3 8.2 29.1 3.5 
3812 0 3 8.2 31.3 4.5 
4770 0 3 9.3 32.4 5.5 
5554 0 3 6 29.1 6.5 
6572 0 3 10.4 31.3 7.5 
8252 0 3 6 31.3 9.5 
11012 0 3 8.2 31.3 12.5 
13653 0 3 6 30.2 15.5 
18207 0 3 7.1 29.1 20.5 
18151 0 3 6 32.4 20.5 
20008 0 3 7.1 30.2 22.5 
20010 0 3 7.1 32.4 22.5 
22768 0 3 9.3 30.2 25.5 
22769 0 3 9.3 31.3 25.5 
26374 0 3 10.4 29.1 29.5 
3956 0 3 12.6 4.9 4.5 
4860 0 3 12.6 0.5 5.5 
4859 0 3 12.6 1.6 5.5 
4858 0 3 12.6 2.7 5.5 
4864 0 3 13.7 3.8 5.5 
7502 0 3 11.5 1.6 8.5 
7503 0 3 11.5 2.7 8.5 
7557 0 3 12.6 3.8 8.5 
8460 0 3 12.6 0.5 9.5 
8403 0 3 11.5 2.7 9.5 
9421 0 3 15.9 0.5 10.5 
9424 0 3 15.9 3.8 10.5 
10320 0 3 14.8 0.5 11.5 
10258 0 3 12.6 2.7 11.5 
10317 0 3 14.8 3.8 11.5 
11102 0 3 11.5 1.6 12.5 
12958 0 3 12.6 2.7 14.5 
12956 0 3 12.6 4.9 14.5 
15717 0 3 14.8 3.8 17.5 
16504 0 3 11.5 3.8 18.5 
20225 0 3 15.9 4.9 22.5 
21961 0 3 13.7 0.5 24.5 
24718 0 3 14.8 2.7 27.5 
25621 0 3 15.9 0.5 28.5 
25616 0 3 14.8 4.9 28.5 
1266 0 3 13.7 6 1.5 
2170 0 3 13.7 10.4 2.5 
2230 0 3 15.9 10.4 2.5 
4026 0 3 15.9 6 4.5 
4806 0 3 11.5 6 5.5 
4855 0 3 12.6 6 5.5 
4866 0 3 13.7 6 5.5 
4854 0 3 12.6 7.1 5.5 
4868 0 3 13.7 8.2 5.5 
7510 0 3 11.5 10.4 8.5 
7630 0 3 15.9 10.4 8.5 
8526 0 3 15.9 6 9.5 
8453 0 3 12.6 8.2 9.5 
8513 0 3 14.8 8.2 9.5 
9414 0 3 14.8 7.1 10.5 
10207 0 3 11.5 7.1 11.5 
12010 0 3 11.5 10.4 13.5 
13853 0 3 12.6 8.2 15.5 
14827 0 3 15.9 7.1 16.5 
15715 0 3 14.8 6 17.5 
16551 0 3 12.6 10.4 18.5 
17529 0 3 15.9 9.3 19.5 
18352 0 3 12.6 9.3 20.5 
20155 0 3 12.6 6 22.5 
21112 0 3 14.8 9.3 23.5 
22012 0 3 14.8 9.3 24.5 
22852 0 3 12.6 9.3 25.5 
23813 0 3 14.8 8.2 26.5 
23709 0 3 11.5 9.3 26.5 
1250 0 3 12.6 11.5 1.5 
1332 0 3 15.9 12.6 1.5 
1247 0 3 12.6 14.8 1.5 
2150 0 3 12.6 11.5 2.5 
2171 0 3 13.7 11.5 2.5 
4035 0 3 15.9 15.9 4.5 
4909 0 3 14.8 12.6 5.5 
4906 0 3 14.8 15.9 5.5 
5835 0 3 15.9 15.9 6.5 
7571 0 3 13.7 11.5 8.5 
9433 0 3 15.9 13.7 10.5 
12075 0 3 13.7 15.9 13.5 
13847 0 3 12.6 14.8 15.5 
14714 0 3 11.5 14.8 16.5 
15675 0 3 13.7 15.9 17.5 
16633 0 3 15.9 13.7 18.5 
16546 0 3 12.6 15.9 18.5 
17532 0 3 15.9 12.6 19.5 
18407 0 3 14.8 14.8 20.5 
21132 0 3 15.9 12.6 23.5 
22031 0 3 15.9 11.5 24.5 
23772 0 3 13.7 12.6 26.5 
24612 0 3 11.5 12.6 27.5 
25607 0 3 14.8 14.8 28.5 
25515 0 3 11.5 15.9 28.5 
379 0 3 13.7 20.3 0.5 
320 0 3 11.5 21.4 0.5 
1242 0 3 12.6 20.3 1.5 
2176 0 3 13.7 17 2.5 
4001 0 3 14.8 21.4 4.5 
4819 0 3 11.5 20.3 5.5 
5837 0 3 15.9 18.1 6.5 
6740 0 3 15.9 21.4 7.5 
7576 0 3 13.7 17 8.5 
8537 0 3 15.9 18.1 9.5 
9318 0 3 11.5 19.2 10.5 
9341 0 3 12.6 21.4 10.5 
12018 0 3 11.5 19.2 13.5 
12976 0 3 13.7 17 14.5 
13036 0 3 15.9 17 14.5 
12944 0 3 12.6 18.1 14.5 
13844 0 3 12.6 18.1 15.5 
14741 0 3 12.6 21.4 16.5 
14740 0 3 12.6 22.5 16.5 
15736 0 3 15.9 17 17.5 
19301 0 3 14.8 21.4 21.5 
20177 0 3 13.7 18.1 22.5 
20179 0 3 13.7 20.3 22.5 
20240 0 3 15.9 21.4 22.5 
24641 0 3 12.6 21.4 27.5 
382 0 3 13.7 23.6 0.5 
386 0 3 13.7 28 0.5 
2139 0 3 12.6 23.6 2.5 
3997 0 3 14.8 25.8 4.5 
3985 0 3 13.7 26.9 4.5 
4899 0 3 14.8 23.6 5.5 
4895 0 3 14.8 28 5.5 
5846 0 3 15.9 28 6.5 
8543 0 3 15.9 24.7 9.5 
10222 0 3 11.5 23.6 11.5 
10298 0 3 14.8 24.7 11.5 
11138 0 3 12.6 24.7 12.5 
14723 0 3 11.5 24.7 16.5 
17498 0 3 14.8 24.7 19.5 
18445 0 3 15.9 26.9 20.5 
18446 0 3 15.9 28 20.5 
19224 0 3 11.5 25.8 21.5 
22044 0 3 15.9 25.8 24.5 
23798 0 3 14.8 24.7 26.5 
23726 0 3 11.5 28 26.5 
25597 0 3 14.8 25.8 28.5 
332 0 3 12.6 31.3 0.5 
1348 0 3 15.9 30.2 1.5 
3987 0 3 13.7 29.1 4.5 
4047 0 3 15.9 29.1 4.5 
3989 0 3 13.7 31.3 4.5 
4893 0 3 14.8 30.2 5.5 
7527 0 3 11.5 29.1 8.5 
7531 0 3 12.6 32.4 8.5 
9330 0 3 11.5 32.4 10.5 
13949 0 3 15.9 31.3 15.5 
13891 0 3 14.8 32.4 15.5 
15693 0 3 14.8 30.2 17.5 
17547 0 3 15.9 29.1 19.5 
18331 0 3 12.6 32.4 20.5 
19228 0 3 11.5 30.2 21.5 
20250 0 3 15.9 32.4 22.5 
22893 0 3 14.8 30.2 25.5 
23788 0 3 13.7 30.2 26.5 
25534 0 3 12.6 29.1 28.5 
25528 0 3 11.5 30.2 28.5 
25589 0 3 13.7 31.3 28.5 
7741 0 3 20.3 0.5 8.5 
7683 0 3 18.1 2.7 8.5 
10439 0 3 19.2 1.6 11.5 
10497 0 3 21.4 3.8 11.5 
13141 0 3 20.3 0.5 14.5 
13142 0 3 20.3 1.6 14.5 
14937 0 3 19.2 3.8 16.5 
15901 0 3 22.5 0.5 17.5 
16742 0 3 20.3 1.6 18.5 
16683 0 3 18.1 2.7 18.5 
17583 0 3 18.1 2.7 19.5 
18600 0 3 21.4 0.5 20.5 
18484 0 3 18.1 3.8 20.5 
19500 0 3 21.4 0.5 21.5 
20282 0 3 18.1 1.6 22.5 
21303 0 3 22.5 2.7 23.5 
21237 0 3 19.2 3.8 23.5 
21185 0 3 18.1 4.9 23.5 
21305 0 3 22.5 4.9 23.5 
22080 0 3 17 0.5 24.5 
22143 0 3 20.3 2.7 24.5 
22145 0 3 20.3 4.9 24.5 
23938 0 3 19.2 2.7 26.5 
535 0 3 19.2 6 0.5 
550 0 3 20.3 10.4 0.5 
3293 0 3 21.4 8.2 3.5 
4972 0 3 17 9.3 5.5 
5995 0 3 21.4 6 6.5 
5931 0 3 19.2 10.4 6.5 
7687 0 3 18.1 7.1 8.5 
9549 0 3 20.3 9.3 10.5 
15849 0 3 20.3 9.3 17.5 
16732 0 3 19.2 9.3 18.5 
17575 0 3 17 6 19.5 
17635 0 3 19.2 6 19.5 
17632 0 3 19.2 9.3 19.5 
17631 0 3 19.2 10.4 19.5 
18546 0 3 20.3 6 20.5 
19449 0 3 20.3 9.3 21.5 
20346 0 3 20.3 6 22.5 
21309 0 3 22.5 9.3 23.5 
21310 0 3 22.5 10.4 23.5 
22073 0 3 17 8.2 24.5 
22987 0 3 18.1 7.1 25.5 
23935 0 3 19.2 6 26.5 
23934 0 3 19.2 7.1 26.5 
23871 0 3 17 10.4 26.5 
24907 0 3 22.5 7.1 27.5 
26632 0 3 19.2 9.3 29.5 
526 0 3 19.2 15.9 0.5 
2294 0 3 18.1 14.8 2.5 
3251 0 3 20.3 11.5 3.5 
3193 0 3 18.1 13.7 3.5 
4092 0 3 18.1 12.6 4.5 
5111 0 3 22.5 11.5 5.5 
5053 0 3 20.3 13.7 5.5 
6827 0 3 19.2 14.8 7.5 
7692 0 3 18.1 12.6 8.5 
8630 0 3 19.2 11.5 9.5 
8689 0 3 21.4 12.6 9.5 
8595 0 3 18.1 15.9 9.5 
10426 0 3 19.2 15.9 11.5 
13095 0 3 18.1 15.9 14.5 
14090 0 3 21.4 11.5 15.5 
16668 0 3 17 13.7 18.5 
16815 0 3 22.5 15.9 18.5 
17568 0 3 17 13.7 19.5 
19369 0 3 17 12.6 21.5 
23952 0 3 20.3 12.6 26.5 
24769 0 3 17 12.6 27.5 
24888 0 3 21.4 13.7 27.5 
497 0 3 18.1 18.1 0.5 
524 0 3 19.2 18.1 0.5 
584 0 3 21.4 18.1 0.5 
582 0 3 21.4 20.3 0.5 
1457 0 3 20.3 18.1 1.5 
1363 0 3 17 19.2 1.5 
1420 0 3 19.2 22.5 1.5 
1461 0 3 20.3 22.5 1.5 
4181 0 3 21.4 21.4 4.5 
5897 0 3 18.1 18.1 6.5 
5899 0 3 18.1 20.3 6.5 
5960 0 3 20.3 21.4 6.5 
6822 0 3 19.2 20.3 7.5 
6821 0 3 19.2 21.4 7.5 
7697 0 3 18.1 18.1 8.5 
7781 0 3 21.4 21.4 8.5 
12282 0 3 21.4 20.3 13.5 
13181 0 3 21.4 21.4 14.5 
13964 0 3 17 18.1 15.5 
14982 0 3 21.4 20.3 16.5 
15821 0 3 19.2 21.4 17.5 
17658 0 3 20.3 19.2 19.5 
17681 0 3 21.4 21.4 19.5 
19425 0 3 19.2 17 21.5 
19457 0 3 20.3 18.1 21.5 
19519 0 3 22.5 20.3 21.5 
19420 0 3 19.2 22.5 21.5 
20416 0 3 22.5 17 22.5 
21196 0 3 18.1 17 23.5 
21258 0 3 20.3 19.2 23.5 
22157 0 3 20.3 18.1 24.5 
22217 0 3 22.5 18.1 24.5 
22158 0 3 20.3 19.2 24.5 
22161 0 3 20.3 22.5 24.5 
24017 0 3 22.5 18.1 26.5 
24762 0 3 17 20.3 27.5 
24921 0 3 22.5 22.5 27.5 
26598 0 3 18.1 19.2 29.5 
26621 0 3 19.2 21.4 29.5 
26660 0 3 20.3 21.4 29.5 
26601 0 3 18.1 22.5 29.5 
502 0 3 18.1 23.6 0.5 
3218 0 3 19.2 24.7 3.5 
3215 0 3 19.2 28 3.5 
3266 0 3 20.3 28 3.5 
4176 0 3 21.4 26.9 4.5 
4959 0 3 17 23.6 5.5 
6757 0 3 17 25.8 7.5 
6806 0 3 18.1 28 7.5 
6866 0 3 20.3 28 7.5 
7657 0 3 17 25.8 8.5 
8558 0 3 17 24.7 9.5 
8664 0 3 20.3 25.8 9.5 
9519 0 3 19.2 23.6 10.5 
9566 0 3 20.3 28 10.5 
10478 0 3 21.4 24.7 11.5 
10415 0 3 19.2 28 11.5 
14919 0 3 19.2 23.6 16.5 
15878 0 3 21.4 24.7 17.5 
15816 0 3 19.2 26.9 17.5 
17662 0 3 20.3 23.6 19.5 
17618 0 3 19.2 24.7 19.5 
17615 0 3 19.2 28 19.5 
18623 0 3 22.5 24.7 20.5 
19464 0 3 20.3 25.8 21.5 
20302 0 3 18.1 23.6 22.5 
20425 0 3 22.5 26.9 22.5 
23016 0 3 19.2 26.9 25.5 
23006 0 3 18.1 28 25.5 
25762 0 3 20.3 23.6 28.5 
26663 0 3 20.3 24.7 29.5 
26605 0 3 18.1 26.9 29.5 
26616 0 3 19.2 26.9 29.5 
5851 0 3 17 32.4 6.5 
6812 0 3 19.2 31.3 7.5 
7767 0 3 20.3 29.1 8.5 
7773 0 3 21.4 30.2 8.5 
7830 0 3 22.5 32.4 8.5 
8554 0 3 17 29.1 9.5 
8614 0 3 19.2 29.1 9.5 
9630 0 3 22.5 32.4 10.5 
12214 0 3 19.2 29.1 13.5 
13174 0 3 21.4 29.1 14.5 
13051 0 3 17 32.4 14.5 
14130 0 3 22.5 32.4 15.5 
14907 0 3 18.1 29.1 16.5 
14910 0 3 18.1 32.4 16.5 
15812 0 3 19.2 31.3 17.5 
18510 0 3 18.1 32.4 20.5 
19469 0 3 20.3 31.3 21.5 
19410 0 3 18.1 32.4 21.5 
21212 0 3 19.2 31.3 23.5 
23069 0 3 20.3 31.3 25.5 
23072 0 3 21.4 31.3 25.5 
24929 0 3 22.5 31.3 27.5 
26611 0 3 19.2 32.4 29.5 
720 0 3 25.8 0.5 0.5 
659 0 3 23.6 1.6 0.5 
778 0 3 28 2.7 0.5 
2578 0 3 28 2.7 2.5 
4321 0 3 26.9 0.5 4.5 
4256 0 3 23.6 4.9 4.5 
6058 0 3 23.6 2.7 6.5 
7019 0 3 25.8 1.6 7.5 
8763 0 3 24.7 2.7 9.5 
8757 0 3 23.6 3.8 9.5 
11577 0 3 28 3.8 12.5 
13261 0 3 24.7 0.5 14.5 
13258 0 3 23.6 2.7 14.5 
14218 0 3 25.8 2.7 15.5 
15180 0 3 28 0.5 16.5 
17879 0 3 28 1.6 19.5 
17876 0 3 28 4.9 19.5 
20459 0 3 23.6 1.6 22.5 
20458 0 3 23.6 2.7 22.5 
20463 0 3 24.7 2.7 22.5 
21480 0 3 28 0.5 23.5 
22263 0 3 24.7 2.7 24.5 
22264 0 3 24.7 3.8 24.5 
23163 0 3 24.7 2.7 25.5 
24180 0 3 28 0.5 26.5 
24116 0 3 25.8 4.9 26.5 
26764 0 3 24.7 3.8 29.5 
666 0 3 24.7 6 0.5 
651 0 3 23.6 10.4 0.5 
1566 0 3 24.7 6 1.5 
3414 0 3 25.8 7.1 3.5 
4326 0 3 26.9 6 4.5 
4253 0 3 23.6 8.2 4.5 
4312 0 3 25.8 9.3 4.5 
6970 0 3 24.7 10.4 7.5 
7915 0 3 25.8 6 8.5 
7927 0 3 26.9 7.1 8.5 
7853 0 3 23.6 8.2 8.5 
7852 0 3 23.6 9.3 8.5 
7870 0 3 24.7 10.4 8.5 
8769 0 3 24.7 9.3 9.5 
9715 0 3 25.8 6 10.5 
10567 0 3 24.7 7.1 11.5 
10613 0 3 25.8 8.2 11.5 
10628 0 3 26.9 8.2 11.5 
12351 0 3 23.6 10.4 13.5 
13255 0 3 23.6 6 14.5 
13268 0 3 24.7 8.2 14.5 
13329 0 3 26.9 9.3 14.5 
13330 0 3 26.9 10.4 14.5 
14214 0 3 25.8 7.1 15.5 
14274 0 3 28 7.1 15.5 
15055 0 3 23.6 6 16.5 
15051 0 3 23.6 10.4 16.5 
16027 0 3 26.9 7.1 17.5 
16028 0 3 26.9 8.2 17.5 
16854 0 3 23.6 7.1 18.5 
16867 0 3 24.7 7.1 18.5 
16912 0 3 25.8 9.3 18.5 
17874 0 3 28 7.1 19.5 
21427 0 3 26.9 7.1 23.5 
21412 0 3 25.8 9.3 23.5 
22371 0 3 28 10.4 24.5 
26766 0 3 24.7 6 29.5 
2473 0 3 24.7 13.7 2.5 
2475 0 3 24.7 15.9 2.5 
3371 0 3 24.7 11.5 3.5 
4367 0 3 28 14.8 4.5 
7033 0 3 26.9 13.7 7.5 
9706 0 3 25.8 15.9 10.5 
10607 0 3 25.8 14.8 11.5 
15973 0 3 24.7 13.7 17.5 
17747 0 3 23.6 14.8 19.5 
17746 0 3 23.6 15.9 19.5 
20472 0 3 24.7 12.6 22.5 
20448 0 3 23.6 13.7 22.5 
20506 0 3 25.8 15.9 22.5 
21434 0 3 26.9 14.8 23.5 
24049 0 3 23.6 12.6 26.5 
24107 0 3 25.8 14.8 26.5 
704 0 3 25.8 18.1 0.5 
681 0 3 24.7 22.5 0.5 
1577 0 3 24.7 18.1 1.5 
2445 0 3 23.6 17 2.5 
2440 0 3 23.6 22.5 2.5 
2500 0 3 25.8 22.5 2.5 
3345 0 3 23.6 17 3.5 
4245 0 3 23.6 17 4.5 
5203 0 3 25.8 19.2 5.5 
7842 0 3 23.6 20.3 8.5 
9704 0 3 25.8 18.1 10.5 
11443 0 3 23.6 19.2 12.5 
12342 0 3 23.6 20.3 13.5 
13362 0 3 28 20.3 14.5 
14261 0 3 28 21.4 15.5 
15045 0 3 23.6 17 16.5 
18737 0 3 26.9 18.1 20.5 
18763 0 3 28 19.2 20.5 
19576 0 3 24.7 17 21.5 
20505 0 3 25.8 17 22.5 
21345 0 3 23.6 17 23.5 
21465 0 3 28 17 23.5 
21403 0 3 25.8 19.2 23.5 
21379 0 3 24.7 20.3 23.5 
24103 0 3 25.8 19.2 26.5 
24041 0 3 23.6 21.4 26.5 
25936 0 3 26.9 17 28.5 
25877 0 3 24.7 18.1 28.5 
26840 0 3 26.9 21.4 29.5 
2437 0 3 23.6 25.8 2.5 
3338 0 3 23.6 24.7 3.5 
4345 0 3 26.9 26.9 4.5 
5256 0 3 28 26.9 5.5 
10643 0 3 26.9 24.7 11.5 
13235 0 3 23.6 28 14.5 
14242 0 3 26.9 23.6 15.5 
14256 0 3 28 26.9 15.5 
16898 0 3 25.8 24.7 18.5 
16836 0 3 23.6 26.9 18.5 
19585 0 3 24.7 26.9 21.5 
21459 0 3 28 23.6 23.5 
21337 0 3 23.6 25.8 23.5 
24098 0 3 25.8 24.7 26.5 
24939 0 3 23.6 23.6 27.5 
24982 0 3 24.7 23.6 27.5 
24997 0 3 25.8 25.8 27.5 
26857 0 3 28 25.8 29.5 
689 0 3 24.7 31.3 0.5 
1654 0 3 28 29.1 1.5 
2548 0 3 26.9 30.2 2.5 
2431 0 3 23.6 32.4 2.5 
2491 0 3 25.8 32.4 2.5 
3449 0 3 26.9 31.3 3.5 
5189 0 3 24.7 31.3 5.5 
6092 0 3 25.8 31.3 6.5 
7833 0 3 23.6 30.2 8.5 
8793 0 3 25.8 30.2 9.5 
10648 0 3 26.9 30.2 11.5 
13290 0 3 24.7 32.4 14.5 
14253 0 3 28 30.2 15.5 
15031 0 3 23.6 32.4 16.5 
16051 0 3 28 32.4 17.5 
16949 0 3 26.9 31.3 18.5 
17732 0 3 23.6 31.3 19.5 
17791 0 3 25.8 32.4 19.5 
19647 0 3 26.9 29.1 21.5 
24091 0 3 25.8 32.4 26.5 
24933 0 3 23.6 30.2 27.5 
25894 0 3 25.8 29.1 28.5 
25892 0 3 25.8 31.3 28.5 
25891 0 3 25.8 32.4 28.5 
26731 0 3 23.6 32.4 29.5 
26850 0 3 26.9 32.4 29.5 
5340 0 3 30.2 0.5 5.5 
8040 0 3 30.2 0.5 8.5 
8098 0 3 32.4 2.7 8.5 
8884 0 3 29.1 3.8 9.5 
11639 0 3 30.2 1.6 12.5 
12544 0 3 31.3 3.8 13.5 
12536 0 3 30.2 4.9 13.5 
13440 0 3 30.2 0.5 14.5 
13441 0 3 31.3 0.5 14.5 
13445 0 3 31.3 4.9 14.5 
14400 0 3 32.4 0.5 15.5 
14285 0 3 29.1 4.9 15.5 
16197 0 3 32.4 3.8 17.5 
17997 0 3 32.4 3.8 19.5 
18900 0 3 32.4 0.5 20.5 
19683 0 3 29.1 2.7 21.5 
20639 0 3 30.2 1.6 22.5 
22440 0 3 30.2 0.5 24.5 
23400 0 3 32.4 0.5 25.5 
23342 0 3 31.3 1.6 25.5 
23344 0 3 31.3 3.8 25.5 
25142 0 3 31.3 1.6 27.5 
2694 0 3 32.4 7.1 2.5 
4386 0 3 29.1 6 4.5 
4491 0 3 32.4 10.4 4.5 
7987 0 3 29.1 7.1 8.5 
7989 0 3 29.1 9.3 8.5 
8049 0 3 31.3 9.3 8.5 
9789 0 3 29.1 9.3 10.5 
10689 0 3 29.1 9.3 11.5 
11635 0 3 30.2 6 12.5 
11693 0 3 32.4 8.2 12.5 
16088 0 3 29.1 8.2 17.5 
19750 0 3 31.3 10.4 21.5 
19791 0 3 32.4 10.4 21.5 
21486 0 3 29.1 6 23.5 
22388 0 3 29.1 8.2 24.5 
22390 0 3 29.1 10.4 24.5 
24187 0 3 29.1 7.1 26.5 
26047 0 3 31.3 7.1 28.5 
26048 0 3 31.3 8.2 28.5 
26935 0 3 30.2 6 29.5 
26949 0 3 31.3 9.3 29.5 
2628 0 3 30.2 13.7 2.5 
2686 0 3 32.4 15.9 2.5 
4451 0 3 31.3 11.5 4.5 
4453 0 3 31.3 13.7 4.5 
5330 0 3 30.2 11.5 5.5 
6191 0 3 29.1 11.5 6.5 
6193 0 3 29.1 13.7 6.5 
6227 0 3 30.2 14.8 6.5 
7154 0 3 31.3 14.8 7.5 
7155 0 3 31.3 15.9 7.5 
8988 0 3 32.4 13.7 9.5 
9791 0 3 29.1 11.5 10.5 
9852 0 3 31.3 12.6 10.5 
11626 0 3 30.2 15.9 12.5 
12589 0 3 32.4 12.6 13.5 
12493 0 3 29.1 13.7 13.5 
16154 0 3 31.3 14.8 17.5 
17895 0 3 29.1 15.9 19.5 
22394 0 3 29.1 14.8 24.5 
22454 0 3 31.3 14.8 24.5 
26051 0 3 31.3 11.5 28.5 
26055 0 3 31.3 15.9 28.5 
26927 0 3 30.2 14.8 29.5 
1757 0 3 31.3 18.1 1.5 
1721 0 3 30.2 21.4 1.5 
1761 0 3 31.3 22.5 1.5 
2684 0 3 32.4 18.1 2.5 
4425 0 3 30.2 17 4.5 
6284 0 3 32.4 18.1 6.5 
7156 0 3 31.3 17 7.5 
7185 0 3 32.4 17 7.5 
8925 0 3 30.2 17 9.5 
9823 0 3 30.2 19.2 10.5 
10700 0 3 29.1 21.4 11.5 
11684 0 3 32.4 18.1 12.5 
11683 0 3 32.4 19.2 12.5 
11680 0 3 32.4 22.5 12.5 
13398 0 3 29.1 19.2 14.5 
17896 0 3 29.1 17 19.5 
24285 0 3 32.4 17 26.5 
25123 0 3 30.2 19.2 27.5 
865 0 3 31.3 26.9 0.5 
1763 0 3 31.3 24.7 1.5 
3579 0 3 32.4 23.6 3.5 
3505 0 3 29.1 26.9 3.5 
4418 0 3 30.2 24.7 4.5 
4466 0 3 31.3 28 4.5 
5316 0 3 30.2 26.9 5.5 
6219 0 3 30.2 23.6 6.5 
6263 0 3 31.3 24.7 6.5 
6204 0 3 29.1 25.8 6.5 
6277 0 3 32.4 25.8 6.5 
14302 0 3 29.1 23.6 15.5 
15217 0 3 30.2 25.8 16.5 
17905 0 3 29.1 26.9 19.5 
19704 0 3 29.1 25.8 21.5 
20616 0 3 30.2 26.9 22.5 
20676 0 3 32.4 26.9 22.5 
25162 0 3 31.3 23.6 27.5 
26064 0 3 31.3 25.8 28.5 
26005 0 3 29.1 26.9 28.5 
1707 0 3 29.1 29.1 1.5 
1767 0 3 31.3 29.1 1.5 
4468 0 3 31.3 30.2 4.5 
6268 0 3 31.3 30.2 6.5 
8068 0 3 31.3 30.2 8.5 
12570 0 3 31.3 32.4 13.5 
14307 0 3 29.1 29.1 15.5 
15207 0 3 29.1 29.1 16.5 
15273 0 3 32.4 30.2 16.5 
16113 0 3 30.2 30.2 17.5 
17067 0 3 31.3 29.1 18.5 
19708 0 3 29.1 30.2 21.5 
22409 0 3 29.1 31.3 24.5 
23308 0 3 29.1 30.2 25.5 
ITEM: TIMESTEP
100000
ITEM: NUMBER OF ATOMS
900
ITEM: BOX BOUNDS pp pp pp
0.0000000000000000e+00 3.4000000000000000e+01
0.0000000000000000e+00 3.4000000000000000e+01
0.0000000000000000e+00 3.4000000000000000e+01
ITEM: ATOMS id mol type x y z 
6572 0 3 5.00584 3.07962 4.21958 
2930 0 3 1.11833 5.21001 4.62065 
2854 0 3 4.07235 3.74167 5.05729 
2705 0 3 1.04846 1.78318 6.49925 
3786 0 3 4.08294 2.82017 6.00727 
3775 0 3 5.38318 0.971797 5.73087 
993 0 3 5.22209 0.661462 7.061 
9233 0 3 3.77015 3.88973 7.35525 
7853 0 3 1.80233 4.94949 6.86983 
5516 0 3 4.79458 1.26447 9.44721 
8104 0 3 2.38124 4.52192 9.05189 
4686 0 3 3.68545 1.97625 11.08 
16088 0 3 0.9293 4.12877 10.5217 
5189 0 3 0.108218 3.90299 6.20659 
7206 0 3 3.86183 3.55493 12.9964 
12544 0 3 1.37813 4.10756 12.4822 
15362 0 3 1.98156 0.374035 15.0429 
7436 0 3 4.86112 2.34446 16.1108 
12570 0 3 1.91356 0.430396 17.509 
16267 0 3 0.67243 0.6213 18.0454 
10920 0 3 2.49224 1.44301 19.2529 
21777 0 3 0.711023 2.06286 19.8885 
26850 0 3 0.947219 1.19123 20.6903 
14577 0 3 3.14084 4.94136 23.5137 
19834 0 3 4.65953 1.67419 24.4552 
25322 0 3 1.94443 5.46804 27.7088 
20010 0 3 3.63128 5.34745 25.8635 
17997 0 3 0.108155 3.14596 30.6662 
20676 0 3 0.793561 2.6144 29.2042 
22506 0 3 3.08637 3.36059 28.8452 
22681 0 3 0.304334 1.48661 28.9296 
26935 0 3 2.17675 2.46482 29.4537 
1917 0 3 3.29514 1.9036 30.8376 
26104 0 3 2.58246 2.09889 31.7569 
5525 0 3 3.88938 0.697929 32.9841 
172 0 3 1.98827 10.5191 1.10204 
2950 0 3 2.73916 10.3474 2.12975 
2936 0 3 3.63386 8.51194 3.14423 
4491 0 3 0.317191 10.2627 3.21666 
4666 0 3 4.19493 7.25583 3.64209 
7311 0 3 1.32505 8.51914 6.02361 
9791 0 3 2.80347 10.013 7.04853 
14571 0 3 4.92989 10.1648 13.7431 
11693 0 3 4.48399 8.46818 14.7618 
9005 0 3 3.93782 9.44374 14.4799 
20790 0 3 0.471038 5.70822 15.1201 
12664 0 3 2.49358 7.81611 18.6218 
19920 0 3 0.447142 7.67252 21.9251 
17229 0 3 1.55713 7.55884 21.9806 
22549 0 3 0.84762 8.84676 22.3212 
23463 0 3 0.278299 9.41062 24.4829 
20947 0 3 4.16468 10.889 24.4246 
22677 0 3 4.25361 10.0204 25.4613 
21850 0 3 0.0602693 9.2891 23.2409 
3716 0 3 3.87503 7.78301 30.9645 
2684 0 3 4.01976 12.5322 2.64856 
10817 0 3 5.36845 15.4437 2.45186 
1090 0 3 5.37096 12.3373 2.23135 
6227 0 3 1.97831 12.0194 6.74008 
4451 0 3 0.0829444 16.0107 6.58357 
5473 0 3 4.56704 11.6715 7.96578 
6193 0 3 0.497367 15.8781 7.80315 
8988 0 3 1.9032 16.6852 10.6617 
6435 0 3 3.55169 14.7223 8.51874 
17171 0 3 2.53194 11.8999 13.0243 
13330 0 3 1.44388 12.4848 13.0374 
16206 0 3 3.26322 12.8114 13.0323 
11865 0 3 2.10528 13.2121 13.5446 
13693 0 3 5.15192 15.8239 14.0817 
23411 0 3 3.83944 13.3663 17.2773 
17271 0 3 3.35006 15.3782 21.807 
24116 0 3 0.836294 13.2488 21.3239 
22752 0 3 0.82664 12.0889 23.9441 
20751 0 3 1.05069 12.454 26.0513 
22514 0 3 4.16526 14.4069 26.0195 
18012 0 3 0.362334 16.4682 27.1508 
26114 0 3 4.6996 14.2098 27.7006 
25515 0 3 4.65056 13.9503 28.8646 
2170 0 3 5.42882 12.4061 33.7296 
21427 0 3 2.60047 13.4904 28.4702 
4640 0 3 5.2093 22.622 4.90941 
7284 0 3 0.312856 21.7449 0.299087 
5417 0 3 1.84028 21.3899 5.36136 
6277 0 3 0.477419 18.1748 1.69735 
2868 0 3 2.10652 20.244 2.50893 
9049 0 3 4.2235 19.3891 3.23849 
9099 0 3 3.11812 19.353 7.4193 
9102 0 3 3.1882 20.4229 8.55208 
10118 0 3 3.45918 22.3613 8.71753 
8925 0 3 0.967144 22.6478 10.0348 
19750 0 3 3.08698 18.8095 14.8822 
14741 0 3 2.98673 20.9869 14.8201 
13763 0 3 5.05173 18.9996 15.8383 
12619 0 3 4.74188 21.8548 11.3634 
15499 0 3 3.27515 21.3477 16.9873 
18101 0 3 2.51105 22.3734 17.3089 
16154 0 3 1.52608 19.8045 17.8418 
16336 0 3 3.46257 20.6134 18.1244 
12821 0 3 4.87731 21.1437 19.9038 
19812 0 3 1.03193 18.9351 23.4038 
21705 0 3 3.58318 20.1447 27.0074 
22454 0 3 0.765173 21.7888 26.6364 
2956 0 3 3.90382 20.6695 29.8108 
6219 0 3 0.571056 22.8819 0.250861 
3579 0 3 0.159032 26.6391 0.875599 
6268 0 3 4.28817 26.9028 1.34324 
4425 0 3 0.469206 25.4322 3.00159 
10038 0 3 4.91042 24.9466 6.07289 
11683 0 3 4.0344 23.157 7.10761 
11842 0 3 3.98804 26.4012 7.25053 
5502 0 3 0.00880775 24.312 6.40025 
16402 0 3 4.57763 23.9542 12.0187 
9823 0 3 1.30953 23.126 12.2852 
13656 0 3 3.48253 25.1005 13.792 
16277 0 3 0.534427 23.8217 14.3106 
19848 0 3 3.78099 24.8722 14.8913 
7298 0 3 5.09354 25.9886 14.5564 
15501 0 3 4.39572 26.8556 15.4162 
18974 0 3 0.507809 24.8736 19.6413 
18205 0 3 3.15556 24.7318 19.3725 
18161 0 3 4.49859 24.8243 18.8856 
15217 0 3 0.278111 24.4796 20.8332 
17319 0 3 4.983 27.523 21.3539 
17261 0 3 4.45978 26.0467 23.8344 
23682 0 3 5.14402 26.7306 27.0907 
24320 0 3 2.60958 27.5166 29.0208 
1763 0 3 2.41012 29.4115 1.77972 
3602 0 3 3.16744 29.5765 2.756 
2729 0 3 1.67185 33.0148 2.05241 
9034 0 3 4.52082 33.4151 4.26501 
5256 0 3 0.493432 31.8968 4.82027 
778 0 3 3.16197 28.3685 2.30593 
13538 0 3 4.0095 30.3268 8.22959 
8252 0 3 4.8624 31.0008 8.38221 
26840 0 3 1.17852 31.5176 7.38469 
11730 0 3 0.427319 30.4044 9.72315 
7503 0 3 3.26112 29.7781 10.9125 
13441 0 3 0.991654 32.1816 12.2523 
19683 0 3 0.812649 33.3891 16.4819 
15398 0 3 4.60447 29.1057 13.2957 
5584 0 3 1.31114 33.8427 11.74 
15273 0 3 1.75674 32.6741 15.7018 
17101 0 3 0.203716 30.0212 14.2663 
14497 0 3 4.08095 30.7181 18.4742 
18969 0 3 3.25677 28.7912 20.6098 
14550 0 3 2.0055 29.7573 22.2058 
21486 0 3 1.45483 31.7569 22.859 
19846 0 3 3.83618 28.7245 25.1796 
18098 0 3 0.609009 31.7757 24.8105 
22704 0 3 4.32565 29.727 26.8404 
20008 0 3 4.51215 33.8321 25.9541 
24301 0 3 0.712968 29.9983 30.1544 
25892 0 3 3.18194 33.2281 29.5813 
26857 0 3 0.087381 32.6172 33.4973 
990 0 3 2.24494 31.0879 31.4505 
332 0 3 4.39254 31.9816 31.3524 
1767 0 3 0.54643 29.6553 32.7561 
22678 0 3 8.69169 0.639618 0.371312 
4866 0 3 10.4133 4.33303 5.32191 
24419 0 3 8.4988 1.29953 2.76942 
6305 0 3 6.45366 0.504241 5.94435 
4854 0 3 10.0737 3.94529 6.27953 
7571 0 3 11.2427 4.25195 6.28729 
7266 0 3 8.19185 4.99389 6.31475 
4466 0 3 7.34139 1.07565 7.22987 
12958 0 3 11.2881 0.835419 10.0763 
11938 0 3 8.38544 1.71054 12.4956 
8278 0 3 7.8574 3.84764 13.0237 
11100 0 3 10.2236 0.289942 13.9056 
10930 0 3 7.85171 2.55588 16.9101 
11810 0 3 10.3531 5.60035 14.7611 
19978 0 3 8.42531 0.528368 18.6888 
11102 0 3 10.4868 0.243008 20.5283 
215 0 3 6.27298 3.59578 21.2124 
20818 0 3 7.09326 4.54811 21.7785 
11012 0 3 9.98007 1.8226 21.4979 
23938 0 3 8.03603 0.479868 22.7706 
17342 0 3 7.46208 0.0450703 25.039 
24535 0 3 6.66301 4.14024 25.8075 
23690 0 3 10.1025 3.08029 26.8786 
24532 0 3 10.3775 4.07573 27.3106 
1 0 3 5.97855 5.5855 27.2147 
21755 0 3 9.16976 0.139011 28.4155 
1081 0 3 9.67818 0.403509 30.7421 
188 0 3 5.98591 5.09247 31.0131 
26249 0 3 6.92948 2.42786 31.725 
1134 0 3 8.14245 2.52113 31.4838 
992 0 3 8.4765 3.39125 33.9232 
3956 0 3 9.3588 1.349 33.381 
4806 0 3 11.1487 0.55772 28.537 
22769 0 3 7.90755 0.670044 28.3505 
4688 0 3 6.15115 9.16816 2.29078 
1247 0 3 6.12968 9.30279 3.37669 
4787 0 3 9.9048 6.51923 5.57269 
4909 0 3 7.05732 8.7531 6.12574 
13748 0 3 11.2464 7.73099 9.28496 
10032 0 3 10.1574 10.2108 6.89263 
9295 0 3 10.9761 6.69242 10.219 
4770 0 3 10.1445 7.86951 9.7785 
12010 0 3 10.9448 7.93706 10.51 
11953 0 3 8.44207 9.01758 11.6654 
10207 0 3 7.24737 7.88776 13.0178 
11892 0 3 8.28093 8.42242 13.6614 
12845 0 3 7.96901 10.9833 14.1018 
12956 0 3 11.0657 6.95933 16.0605 
12976 0 3 10.1385 9.94545 16.058 
14714 0 3 7.76127 9.81823 18.2925 
19036 0 3 5.81615 6.79138 21.5013 
20826 0 3 8.81295 9.60152 23.9104 
24546 0 3 7.5779 6.42802 22.886 
26215 0 3 7.28315 6.97099 27.24 
26228 0 3 6.67271 10.4417 28.8216 
1028 0 3 9.67279 11.126 28.395 
2890 0 3 9.46819 11.1126 30.843 
23709 0 3 10.0133 7.11298 31.5531 
1153 0 3 9.37434 9.4219 32.1653 
1242 0 3 9.42411 7.08199 32.5587 
2171 0 3 8.28601 16.8095 1.11087 
10191 0 3 9.75872 11.4292 4.03164 
9168 0 3 8.35684 15.2887 1.94196 
6550 0 3 8.97666 12.0276 3.29771 
8386 0 3 8.59756 12.6216 4.23812 
5504 0 3 7.79638 15.891 4.08375 
4694 0 3 7.95998 14.5171 11.2787 