ITEM: TIMESTEP
7000000
ITEM: NUMBER OF ATOMS
900
ITEM: BOX BOUNDS pp pp pp
7.3598007983716585e-01 3.3264019920151441e+01
7.3598007983716585e-01 3.3264019920151441e+01
7.3598007983716585e-01 3.3264019920151441e+01
ITEM: ATOMS id mol type x y z 
16546 0 3 2.47242 2.84832 4.2081 
18058 0 3 2.43367 4.12351 4.86635 
24285 0 3 4.10491 4.79881 6.66458 
7697 0 3 6.09675 5.07457 6.64628 
22390 0 3 4.61378 1.8316 9.06282 
13538 0 3 5.85467 4.85066 9.71211 
10038 0 3 5.12663 5.53837 8.64854 
5340 0 3 0.851735 1.50762 13.2921 
1763 0 3 2.50146 4.48311 12.856 
26731 0 3 2.92954 4.66563 11.5964 
6092 0 3 4.82504 0.738786 13.6733 
4466 0 3 5.37852 0.879887 15.3314 
14910 0 3 1.98899 2.55192 16.9322 
22606 0 3 2.40632 2.61601 15.9363 
25877 0 3 2.03601 6.06979 16.8322 
24939 0 3 3.62599 5.52494 15.406 
23400 0 3 2.45543 5.21339 18.1706 
18098 0 3 0.745652 1.705 20.1479 
21112 0 3 4.31333 1.64239 22.715 
5111 0 3 4.18274 0.975084 26.6227 
21345 0 3 5.76742 1.25232 27.9502 
16402 0 3 4.2066 5.47482 28.8239 
20928 0 3 1.77788 3.76786 29.6813 
17271 0 3 4.26682 2.33473 31.4598 
1153 0 3 5.51737 2.13098 32.2239 
4001 0 3 3.60653 7.96632 1.89795 
1917 0 3 5.65023 7.48335 4.22324 
11683 0 3 4.60187 7.14688 4.49434 
23486 0 3 4.52998 10.7944 5.87473 
5583 0 3 4.79664 10.3728 4.93607 
15675 0 3 2.45011 7.05206 6.22465 
2937 0 3 5.15559 7.02881 7.20535 
16267 0 3 4.30272 8.60942 7.13838 
13701 0 3 2.6528 11.4942 6.42569 
24982 0 3 6.15524 9.89822 9.63107 
22681 0 3 5.63709 6.57497 10.4884 
4635 0 3 1.4902 10.7119 12.3709 
19750 0 3 4.1584 8.44449 15.815 
15398 0 3 5.80223 8.01495 16.4815 
25515 0 3 5.85931 7.61061 17.4448 
10118 0 3 3.63827 10.1171 18.2399 
5525 0 3 1.13362 6.46812 18.9025 
9341 0 3 2.93475 7.67025 19.4011 
24921 0 3 0.956773 10.4718 20.051 
23798 0 3 1.21312 6.23908 22.6308 
18623 0 3 5.03501 8.16347 22.8871 
13174 0 3 3.72954 11.1759 22.4463 
23689 0 3 4.05974 8.36897 24.393 
12018 0 3 4.95095 7.44937 29.0844 
3735 0 3 4.10306 7.13068 29.6563 
8614 0 3 0.947366 9.69955 30.2522 
6219 0 3 3.31374 8.38257 30.2907 
19848 0 3 3.71535 16.6592 0.821651 
8543 0 3 3.48313 14.3385 3.70808 
19149 0 3 3.51709 15.9383 2.99458 
17575 0 3 4.96134 12.5143 5.94113 
3742 0 3 1.63887 12.1293 7.67136 
4176 0 3 1.21494 11.9625 9.57316 
17746 0 3 4.82056 12.3665 9.31223 
16683 0 3 1.2859 15.7389 10.8191 
12612 0 3 4.74278 13.8336 12.0771 
9433 0 3 2.34507 15.8706 12.3113 
10613 0 3 4.25323 15.9313 11.8575 
17547 0 3 5.29663 12.3424 14.9528 
17681 0 3 4.10338 16.2358 13.5038 
9049 0 3 2.22385 11.7093 15.5922 
25891 0 3 1.85489 12.0293 16.5144 
12493 0 3 6.0094 16.2044 16.3099 
21853 0 3 5.63803 12.6104 17.7374 
13949 0 3 5.20432 12.4491 18.6583 
17879 0 3 3.01788 13.8747 17.9838 
12664 0 3 3.34043 12.6665 20.1422 
19647 0 3 2.64505 13.3632 22.696 
17532 0 3 4.86801 11.619 22.7592 
2437 0 3 2.62767 15.2147 23.1893 
13255 0 3 5.54979 12.7581 25.8729 
13964 0 3 1.64325 13.3756 27.3341 
3193 0 3 4.70368 14.0911 27.6601 
10426 0 3 5.55768 14.1238 29.8019 
8595 0 3 3.29506 16.8616 31.3771 
5330 0 3 3.84892 12.2674 32.3633 
7576 0 3 4.20307 14.6536 32.5294 
4345 0 3 4.06 21.013 5.4096 
20095 0 3 1.12355 18.0816 7.50361 
26840 0 3 2.43928 19.0666 7.00385 
5897 0 3 3.80769 19.9487 7.57609 
25892 0 3 5.96226 20.8986 6.32436 
16197 0 3 0.80234 20.4562 12.1058 
8763 0 3 2.29209 18.5685 14.9475 
19301 0 3 5.64735 19.0307 16.23 
5473 0 3 4.19659 18.392 18.1597 
17662 0 3 6.06299 18.3612 18.7949 
7987 0 3 3.25776 20.8915 18.1494 
25231 0 3 5.78654 19.4614 25.5906 
17229 0 3 2.64387 21.9445 25.6391 
13268 0 3 1.40113 17.5874 29.4496 
8884 0 3 5.6232 22.1957 28.1051 
524 0 3 4.29046 17.3585 30.4746 
8068 0 3 1.75369 20.0647 31.5348 
2890 0 3 3.98615 19.6656 31.5369 
4047 0 3 2.99443 25.9858 1.9756 
25534 0 3 4.58499 25.7782 2.46778 
6387 0 3 1.41358 27.2447 1.73538 
10924 0 3 3.42589 27.1493 1.92626 
13258 0 3 2.02601 26.1586 3.1599 
6866 0 3 6.00778 25.6162 6.07327 
15816 0 3 0.947995 26.7519 7.65838 
15362 0 3 2.59199 22.4496 8.3258 
2578 0 3 3.79107 25.4428 8.72882 
13844 0 3 3.89836 24.293 10.373 
6204 0 3 2.15652 23.1766 12.5773 
6556 0 3 0.751078 25.3867 16.1756 
659 0 3 3.52593 27.6135 16.2706 
25621 0 3 4.31302 22.7949 17.5366 
7242 0 3 3.36767 24.4158 18.6699 
13693 0 3 4.71202 27.7704 18.4957 
8757 0 3 3.06308 24.4122 19.8033 
11639 0 3 1.16238 25.504 22.2225 
20250 0 3 3.02648 23.9958 24.6293 
3989 0 3 3.20564 23.9244 25.7957 
18005 0 3 2.04684 25.5973 25.0946 
16854 0 3 6.02955 27.1598 27.3727 
4959 0 3 4.29828 22.4727 30.9881 
6360 0 3 5.44569 25.6785 30.2016 
5460 0 3 2.75316 23.046 32.1878 
4386 0 3 4.90445 29.8144 2.38764 
17342 0 3 2.51698 31.3557 5.72878 
9424 0 3 4.41269 28.249 9.23766 
22371 0 3 2.37646 32.1894 8.01492 
379 0 3 3.20802 30.8071 11.4844 
19128 0 3 5.30643 31.2668 10.3172 
24419 0 3 2.77055 31.4848 10.8344 
9549 0 3 2.17301 28.2014 12.939 
25528 0 3 1.43918 30.8785 12.0374 
16898 0 3 6.157 31.3791 12.2652 
16949 0 3 6.05012 30.3647 11.7569 
3683 0 3 5.35053 32.1916 11.7964 
17874 0 3 1.93261 31.5442 13.4015 
1090 0 3 4.84948 28.9555 17.7677 
2878 0 3 3.16665 32.1937 20.6384 
9295 0 3 4.68185 32.4518 26.1399 
5504 0 3 1.11628 29.2078 28.5193 
16867 0 3 4.03692 29.7236 29.1393 
1420 0 3 4.92749 32.9722 30.9375 
9034 0 3 2.13579 30.8157 31.9556 
18205 0 3 5.02497 30.4548 31.9034 
19224 0 3 7.3216 2.41996 0.865008 
4854 0 3 9.44936 3.32702 1.68255 
14497 0 3 7.53728 0.799292 5.59217 
14661 0 3 8.94127 2.07135 9.9137 
8252 0 3 9.92252 3.06399 11.4588 
22769 0 3 10.9367 0.749564 14.9645 
4451 0 3 10.1591 5.48788 16.3183 
9630 0 3 11.3046 2.35037 19.6711 
9791 0 3 6.52791 3.30271 19.1469 
8453 0 3 10.6744 1.23589 20.8211 
6277 0 3 10.3285 1.90714 21.6009 
12342 0 3 6.78134 4.35173 21.6705 
26244 0 3 9.62789 3.9742 22.7405 
15180 0 3 10.6261 3.37023 22.4513 
25320 0 3 6.84205 3.30704 25.7479 
20346 0 3 8.36654 3.20638 24.4001 
22394 0 3 8.77293 5.28844 25.1992 
21310 0 3 6.32698 2.72819 26.659 
26258 0 3 10.038 2.56946 27.645 
24301 0 3 9.68385 3.52802 28.1028 
865 0 3 8.46308 0.933763 30.3713 
952 0 3 11.4797 1.4906 30.2889 
24641 0 3 8.97406 2.80465 30.2668 
320 0 3 7.10785 6.98007 2.78277 
1457 0 3 11.5354 6.9448 3.75912 
23503 0 3 7.28231 8.57746 4.0179 
20225 0 3 10.004 7.84995 5.34117 
24442 0 3 7.60856 11.1406 11.2069 
14827 0 3 7.95119 9.44616 13.9478 
5432 0 3 6.44225 9.87599 16.6409 
18151 0 3 8.16233 11.067 15.4224 
10497 0 3 10.4251 6.35624 17.9508 
1979 0 3 10.9828 8.95002 19.3574 
6191 0 3 9.95644 6.22768 21.2939 
24041 0 3 6.80597 8.06991 21.4651 
16732 0 3 10.1666 8.85224 22.3027 
7510 0 3 6.34769 10.008 23.5927 
4326 0 3 6.34712 6.65576 25.3447 
25894 0 3 7.05429 10.2137 24.5765 
26663 0 3 7.37777 10.0069 26.6282 
19812 0 3 7.82472 11.3329 29.2329 
3266 0 3 8.93985 11.4069 29.6368 
14481 0 3 9.59987 9.56952 30.4343 
25123 0 3 6.8196 8.64182 31.8312 
7503 0 3 7.36331 16.3454 2.45173 
22542 0 3 7.34311 12.2224 4.72803 
19519 0 3 10.4998 16.7934 7.00327 
4425 0 3 6.84386 13.1001 10.9828 
17568 0 3 10.0225 12.6922 10.5264 
26228 0 3 9.7632 13.9955 12.7776 
4715 0 3 6.20948 15.17 16.333 
17248 0 3 10.5079 15.6583 15.2118 
19469 0 3 10.7398 16.6257 15.8514 
6058 0 3 8.10103 14.3439 18.1725 
23463 0 3 6.69313 16.9994 18.2499 
14714 0 3 9.2766 15.9283 22.1268 
7781 0 3 9.89288 12.8979 23.3805 
16633 0 3 6.72128 14.1867 24.1315 
666 0 3 8.10307 13.9464 23.467 
19846 0 3 9.11813 13.2251 25.2634 
3812 0 3 7.73663 16.3589 27.0194 
10160 0 3 9.57747 12.0676 28.9718 
4787 0 3 8.86286 15.8332 27.8606 
9168 0 3 8.4219 14.2058 31.2536 
7527 0 3 10.8224 20.5991 2.30755 
1028 0 3 8.34681 22.2678 0.846972 
2714 0 3 9.70585 17.3803 3.65916 
24320 0 3 7.74781 22.1071 4.10596 
386 0 3 8.94397 20.8116 4.33718 
5899 0 3 7.51461 18.5439 5.75626 
23016 0 3 8.79225 18.2404 9.16856 
11693 0 3 6.52809 17.246 11.0646 
4899 0 3 7.08983 18.8956 13.2921 
18407 0 3 9.24127 18.8768 11.6474 
9715 0 3 11.456 19.4113 14.1464 
19036 0 3 8.73476 19.2796 15.8146 
993 0 3 10.0965 19.4954 15.9743 
26605 0 3 8.84316 21.2198 15.2597 
21705 0 3 6.17751 21.8792 17.1577 
13290 0 3 10.1016 17.9243 19.3587 
778 0 3 9.44873 18.4093 22.1049 
3579 0 3 6.98485 20.3044 24.9904 
2445 0 3 10.7226 18.0956 26.6833 
18445 0 3 11.177 19.701 29.6099 
704 0 3 7.82951 21.819 28.9952 
22158 0 3 8.82272 20.0857 29.8154 
21412 0 3 8.76199 21.3853 32.6466 
26632 0 3 9.56439 20.813 33.1795 
20425 0 3 10.0206 24.4321 4.75965 
3785 0 3 7.34785 27.4114 4.92173 
14577 0 3 11.4328 24.2135 10.573 
3716 0 3 8.99097 22.8634 14.6909 
10478 0 3 9.7781 23.3165 13.9949 
17498 0 3 7.31809 23.015 18.0207 
5960 0 3 9.36547 23.9326 17.2349 
16113 0 3 10.1087 22.8921 17.3345 
6268 0 3 9.28446 24.8904 17.8007 
26119 0 3 7.23924 27.4847 18.4249 
13398 0 3 8.90085 22.7081 20.9917 
12956 0 3 10.6307 24.61 22.2057 
19163 0 3 11.4206 25.6483 21.4002 
8249 0 3 7.07585 26.3975 21.0861 
10700 0 3 9.32139 24.4598 24.8661 
3345 0 3 9.46896 25.983 26.2793 
26660 0 3 9.4726 25.7401 27.2733 
11898 0 3 6.17733 26.1228 27.2078 
8403 0 3 6.23283 27.578 28.9725 
13891 0 3 11.4201 25.0093 29.7196 
19708 0 3 7.38108 25.2156 32.7011 
17895 0 3 9.50671 32.7547 4.04452 
1266 0 3 10.9613 32.5741 2.94119 
4909 0 3 10.511 31.7374 4.94746 
4694 0 3 8.48527 28.9494 7.05661 
8278 0 3 9.28201 29.2884 6.24697 
4026 0 3 9.64573 29.8996 9.89139 
7284 0 3 10.4526 31.9709 11.6114 
6806 0 3 6.71675 32.6987 14.3187 
6812 0 3 6.8649 30.182 15.8584 
12944 0 3 8.31224 31.8947 15.5626 
25162 0 3 7.87187 30.3321 18.5845 
4468 0 3 10.6452 30.0165 17.0505 
16668 0 3 10.9702 32.0963 17.7909 
13630 0 3 7.35418 28.5862 19.0648 
17896 0 3 10.5783 28.3467 19.7548 
15901 0 3 6.20473 30.2366 19.8945 
23871 0 3 9.3575 28.9656 21.7284 
23006 0 3 6.78133 28.9891 23.7952 
25322 0 3 11.0413 30.1347 23.5709 
14307 0 3 7.16931 29.2068 24.7429 
1721 0 3 11.2363 28.9824 25.3694 
20302 0 3 10.2361 28.7546 26.0308 
2628 0 3 9.39753 29.2807 26.0601 
7852 0 3 9.40672 31.1067 27.0863 
18207 0 3 9.42781 29.9828 28.2733 
4770 0 3 6.34944 31.1872 32.8754 
7155 0 3 7.30826 31.2706 32.3669 
2854 0 3 15.3694 2.14396 3.55906 
22768 0 3 13.8041 4.04621 3.35804 
24888 0 3 14.2318 5.1016 3.62208 
11577 0 3 16.9032 1.09471 6.07323 
11810 0 3 15.3597 5.30829 4.94008 
26764 0 3 15.5062 1.86362 7.33545 
12544 0 3 14.9857 2.95722 6.90716 
2930 0 3 16.1494 3.31084 7.33109 
7630 0 3 11.9841 1.57368 8.68214 
15273 0 3 16.5435 3.14057 8.53985 
11892 0 3 15.0646 2.09252 11.0368 
1707 0 3 13.3041 4.39407 11.7566 
23709 0 3 12.4993 6.13351 11.7494 
4035 0 3 12.7499 1.5941 14.1734 
26621 0 3 15.8436 2.6015 13.6036 
215 0 3 12.9929 4.92972 14.3549 
3786 0 3 15.2804 0.872605 19.5545 
4858 0 3 14.859 1.71193 21.699 
14090 0 3 13.1308 1.20762 24.5376 
2763 0 3 16.6062 0.778263 25.6428 
9823 0 3 16.0962 5.08385 24.6216 
15849 0 3 11.9867 1.88316 27.5219 
4245 0 3 16.4921 1.92751 27.2062 
23677 0 3 15.5011 1.35131 29.5201 
10258 0 3 14.3282 2.86926 30.3044 
8793 0 3 11.6873 5.00466 30.7946 
16912 0 3 15.2534 4.22647 33.1537 
11138 0 3 12.1872 5.83443 32.4193 
20856 0 3 16.8783 6.23766 1.18235 
8386 0 3 11.7291 8.42219 1.06866 
7557 0 3 14.5392 8.71042 1.16716 
18138 0 3 15.8805 9.5637 1.69185 
14723 0 3 16.3986 7.94535 4.31772 
7571 0 3 14.4939 9.25721 4.43747 
3768 0 3 13.1151 10.1987 5.50874 
22751 0 3 13.4778 7.05897 6.40272 
1143 0 3 14.2816 9.17426 6.59227 
22031 0 3 12.7265 10.9851 7.76314 
1332 0 3 14.7251 8.51838 8.65552 
23726 0 3 14.2045 7.28512 10.4574 
24103 0 3 14.5055 10.4983 10.6079 
1144 0 3 14.4806 11.2705 11.6903 
22752 0 3 14.7213 9.55306 14.5296 
12282 0 3 13.9214 11.5714 14.522 
19928 0 3 16.8845 9.92508 16.3468 
20155 0 3 13.677 8.6455 17.8659 
7989 0 3 14.8103 8.79553 18.812 
17632 0 3 13.1731 6.57473 21.0764 
229 0 3 12.1422 7.64715 22.788 
17631 0 3 14.9843 7.05895 24.9188 
23163 0 3 13.5557 8.68942 25.8497 
550 0 3 14.1068 6.50795 26.3849 
25142 0 3 15.4582 6.31209 27.4859 
18763 0 3 12.8491 6.97617 27.8902 
4181 0 3 16.9729 6.63289 29.1732 
21196 0 3 14.4813 10.4486 27.9272 
22677 0 3 15.5153 9.11306 30.6099 
19920 0 3 14.7265 10.9574 29.981 
19834 0 3 15.8308 9.13032 31.7881 
23308 0 3 12.2242 12.6278 4.27834 
17658 0 3 12.3199 13.7259 2.9645 
11100 0 3 11.9851 15.5832 3.26661 
22409 0 3 13.5048 12.0803 5.40558 
26374 0 3 14.4704 12.8973 5.86976 
24997 0 3 14.7151 14.8619 4.56782 
16088 0 3 13.3167 15.9458 6.72987 
19449 0 3 11.5962 13.7906 10.6864 
4312 0 3 13.9499 15.0938 12.755 
15588 0 3 14.2577 13.0585 15.7605 
13235 0 3 16.2693 14.9132 17.7313 
21185 0 3 12.0127 12.312 19.6267 
12351 0 3 13.3546 13.8702 19.9739 
5851 0 3 16.7005 13.6205 20.4537 
13763 0 3 14.9434 15.9798 21.1867 
26249 0 3 16.7415 14.0398 23.7904 
18484 0 3 14.516 15.7272 23.7814 
15499 0 3 13.3568 13.3493 25.7013 
11635 0 3 12.539 14.3337 25.201 
19585 0 3 13.9562 15.4826 25.8956 
16836 0 3 14.415 13.9657 27.3487 
4895 0 3 15.4179 13.3449 28.1235 
2914 0 3 12.6735 14.2436 29.2532 
12805 0 3 14.772 13.2191 32.2328 
17732 0 3 12.6793 13.76 32.1326 
12845 0 3 14.7267 19.0266 3.93174 
23069 0 3 13.6647 17.9226 6.03343 
19683 0 3 13.5669 18.1882 4.4309 
10191 0 3 14.8617 19.8413 5.8707 
17261 0 3 16.1495 18.1379 6.60749 
21403 0 3 14.1303 19.5697 7.86123 
15045 0 3 16.0113 20.2599 12.3847 
3371 0 3 16.5633 21.4634 14.0662 
1461 0 3 13.3151 18.2093 15.7629 
7683 0 3 16.9581 18.4078 19.9415 
14550 0 3 15.3099 18.2881 19.2862 
21737 0 3 11.7863 19.7971 19.1571 
11102 0 3 13.419 17.4754 21.3148 
12976 0 3 15.7069 20.4168 21.318 
5835 0 3 16.5823 19.1633 21.3939 
8202 0 3 11.7557 21.2555 21.3175 
3956 0 3 13.0038 21.7156 21.2927 
13051 0 3 15.1249 21.9117 20.9641 
15580 0 3 16.5942 22.1404 21.9665 
25607 0 3 12.1697 22.2756 22.923 
18012 0 3 15.3295 18.3972 26.6497 
7311 0 3 16.9551 19.3766 29.4378 
15051 0 3 15.8702 23.4024 1.50164 
22145 0 3 14.4774 25.6686 1.23235 
1075 0 3 11.8441 24.7586 3.85337 
25936 0 3 14.2894 25.0834 3.23014 
22080 0 3 14.97 27.807 5.12668 
21755 0 3 14.0368 27.3061 5.59122 
16416 0 3 16.7141 24.0019 6.93278 
689 0 3 13.9591 25.0045 6.49393 
13521 0 3 14.6481 26.3059 7.39826 
19464 0 3 16.1551 25.8192 10.1278 
5502 0 3 11.7584 23.4233 12.7496 
12625 0 3 14.9038 23.5778 13.629 
7154 0 3 15.2881 27.2124 20.2025 
25616 0 3 13.104 26.012 21.0988 
25478 0 3 11.8483 24.244 21.4916 
10298 0 3 14.5739 24.9712 22.638 
4491 0 3 15.8177 26.4971 22.4637 
3293 0 3 15.6505 23.7203 25.6983 
22852 0 3 14.3128 26.4996 29.1735 
19847 0 3 13.2552 23.6238 30.9329 
5256 0 3 11.6395 22.8351 33.0325 
651 0 3 12.5134 29.4859 1.18197 
10628 0 3 16.1144 32.2016 2.36276 
5554 0 3 16.7835 28.7045 2.86128 
8040 0 3 13.3813 28.9811 6.90546 
4253 0 3 16.7512 29.091 6.36771 
18974 0 3 12.3105 32.0927 6.42811 
6378 0 3 16.2867 32.4732 7.85456 
8537 0 3 16.2379 33.0565 6.81914 
7870 0 3 16.944 29.4065 8.35466 
26111 0 3 13.9895 30.4912 8.19123 
1247 0 3 13.2905 32.4902 9.11135 
5931 0 3 14.4757 28.1779 11.0858 
26114 0 3 16.303 29.7995 10.7954 
21379 0 3 11.5793 32.9917 10.4852 
22143 0 3 15.4186 32.44 11.1462 
13440 0 3 11.8499 30.4546 12.1482 
6193 0 3 13.9513 30.9934 11.5826 
19181 0 3 14.4754 32.2984 14.0305 
19704 0 3 13.6281 30.8702 15.3972 
5203 0 3 12.6995 28.8341 17.0631 
2431 0 3 16.9886 28.0537 18.1258 
5316 0 3 16.584 28.1745 17.045 
26611 0 3 12.3946 30.861 19.7447 
24907 0 3 15.9953 28.2089 21.8657 
15821 0 3 16.4778 29.6005 23.6418 
4666 0 3 12.5785 30.0258 24.7308 
17615 0 3 14.0933 30.9268 28.4143 
19457 0 3 14.4457 30.2462 29.0372 
18737 0 3 16.9521 30.2256 28.9939 
21702 0 3 12.3615 32.2391 29.2481 
4866 0 3 15.2761 32.6911 27.8639 
12010 0 3 15.7779 28.4658 30.4428 
26850 0 3 16.4175 29.0498 29.9235 
16504 0 3 16.9388 30.555 29.99 
22678 0 3 12.7477 31.4887 30.9436 
5837 0 3 20.8001 2.7877 0.764366 
20616 0 3 19.0434 4.34335 5.07643 
11012 0 3 21.7082 3.1678 4.7497 
13036 0 3 22.2705 5.10174 5.96029 
7853 0 3 17.785 1.74571 6.87618 
6435 0 3 22.3888 3.66104 7.87378 
16154 0 3 17.5896 1.88747 7.96545 
2491 0 3 19.786 3.08246 9.7291 
3775 0 3 21.2864 5.22735 10.0052 
24769 0 3 17.5226 3.99122 13.6839 
26616 0 3 22.1685 5.77437 16.3159 
21850 0 3 21.8264 4.71536 18.6321 
24532 0 3 18.5762 3.44517 19.2456 
6557 0 3 20.8061 5.20969 19.2233 
20010 0 3 18.5927 0.763077 23.631 
6821 0 3 19.8865 1.9398 23.473 
10222 0 3 17.5891 2.70786 24.0903 
16551 0 3 20.3018 3.91315 22.5387 
13330 0 3 20.07 4.90941 24.2804 
26055 0 3 18.4844 0.927746 29.1271 
14982 0 3 19.5228 4.17438 29.2289 
7773 0 3 19.6251 3.95222 28.2059 
19420 0 3 19.3029 2.02146 32.0358 
26215 0 3 17.8723 6.20132 2.16648 
11943 0 3 17.3914 7.00337 7.79167 
21303 0 3 22.1002 8.82143 7.54341 
13653 0 3 20.0496 10.0261 7.38506 
14937 0 3 17.0817 9.6776 8.32791 
12642 0 3 18.2765 10.4374 8.96417 
19820 0 3 17.7762 8.25442 11.7934 
22893 0 3 20.5278 10.1484 16.2944 
10823 0 3 19.5424 10.5031 15.9558 
8664 0 3 19.9641 8.85332 17.9561 
24762 0 3 22.2364 8.52549 17.4447 
15717 0 3 22.0324 9.1122 19.4644 
10207 0 3 21.7462 7.1125 22.3994 
10930 0 3 20.7792 8.25185 21.2033 
7502 0 3 17.6337 10.6864 23.9864 
332 0 3 17.1217 8.76658 27.2064 
18253 0 3 19.7292 9.40992 27.0378 
3251 0 3 17.9193 10.5371 26.661 
10087 0 3 21.2702 8.03709 29.3142 
3985 0 3 17.8375 6.78452 30.0918 
20416 0 3 18.4032 10.6196 33.0753 
16028 0 3 19.0348 11.3269 31.914 
15394 0 3 20.1477 10.8121 31.9396 
535 0 3 22.0625 10.2758 32.815 
15217 0 3 17.2147 12.5378 3.44208 
2686 0 3 17.2871 15.1888 4.21867 
12958 0 3 17.5154 14.1402 3.97445 
19425 0 3 18.6675 15.784 3.89363 
2936 0 3 19.5885 15.9988 2.69371 
9414 0 3 20.3529 16.9359 3.35472 
17319 0 3 21.9573 12.1682 4.5504 
20463 0 3 18.1389 12.4766 7.20847 
681 0 3 19.6007 16.121 7.10052 
14907 0 3 19.9334 14.4648 8.09725 
21961 0 3 20.5092 15.1312 10.8209 
19975 0 3 22.1194 15.5322 11.2518 
7687 0 3 18.5974 11.8559 14.2097 
23690 0 3 21.5833 16.0286 13.7575 
12536 0 3 21.3956 12.0605 16.447 
8689 0 3 18.2504 14.9558 20.0496 
4906 0 3 20.4731 16.414 19.2393 
23072 0 3 20.7897 12.6355 20.8495 
20240 0 3 20.53 13.7335 22.7863 
24546 0 3 20.1399 16.9412 22.4855 
13853 0 3 18.5862 13.38 26.2106 
3215 0 3 18.4753 16.5304 27.7112 
7298 0 3 17.1475 16.5654 27.4037 
14242 0 3 22.324 14.663 28.0132 
9318 0 3 18.859 16.5864 31.2128 
3505 0 3 20.3179 14.1221 31.486 
5417 0 3 20.7017 16.4204 32.9787 
21795 0 3 20.6752 16.0202 32.0129 
24091 0 3 18.5003 18.1786 1.0224 
10648 0 3 20.7754 19.1241 1.47423 
4321 0 3 20.8443 21.9427 0.842369 
14256 0 3 19.0596 18.5798 2.96772 
9704 0 3 17.8218 20.3248 3.27333 
10901 0 3 17.2716 19.7909 4.28245 
20751 0 3 21.1592 19.4913 5.74756 
3414 0 3 17.3071 17.8036 6.22881 
7454 0 3 19.7426 18.1931 7.06038 
14740 0 3 22.1604 19.904 6.18603 
1874 0 3 19.5929 19.7421 9.24391 
21480 0 3 17.5506 21.7737 8.33756 
582 0 3 17.7925 20.3588 11.4872 
22012 0 3 21.3184 21.645 10.2047 
23411 0 3 20.693 20.6283 12.8979 
17321 0 3 18.2096 19.4003 13.5118 
6422 0 3 17.9976 19.077 16.924 
10817 0 3 20.7867 21.8113 16.1736 
17529 0 3 17.578 17.1311 17.6347 
21427 0 3 17.8088 17.7861 18.4042 
8925 0 3 22.3109 18.0328 17.7213 
5681 0 3 17.4511 19.6595 17.7802 
13141 0 3 22.3073 21.9246 18.0689 
13754 0 3 17.4064 20.9159 18.8345 
14261 0 3 18.7545 18.853 21.1032 
8558 0 3 19.1793 20.309 21.2411 
9102 0 3 20.3363 18.056 22.7824 
11680 0 3 17.0474 19.2031 25.7796 
17791 0 3 20.8096 18.97 25.8012 
3763 0 3 20.8833 18.5404 26.8615 
18600 0 3 21.09 17.4427 27.1275 
26047 0 3 19.8035 19.2222 26.0949 
1081 0 3 21.2749 20.888 27.826 
2868 0 3 21.6972 19.2619 29.3227 
20505 0 3 21.0121 19.1519 28.0638 
22454 0 3 19.2086 21.8125 28.2973 
2921 0 3 20.9874 19.2584 30.1713 
17635 0 3 21.5375 22.646 1.26587 
18352 0 3 18.8217 26.6012 5.66965 
23682 0 3 17.2578 22.5604 9.10339 
16277 0 3 20.0183 22.9612 12.9348 
24479 0 3 21.8062 23.5397 14.1055 
11865 0 3 21.1987 25.7892 15.2486 
21305 0 3 22.3429 26.0391 15.5 
10607 0 3 17.5213 23.2112 17.7347 
18546 0 3 22.0438 25.1027 18.7585 
22987 0 3 22.3656 25.8467 19.9803 
2078 0 3 19.8187 22.5465 21.352 
2440 0 3 18.4247 26.1833 21.5891 
22157 0 3 20.0916 26.726 20.8634 
23344 0 3 17.457 24.3227 23.8843 
17101 0 3 17.8482 27.4885 25.4483 
21486 0 3 19.3158 26.5832 24.7502 
19576 0 3 21.173 23.0174 27.6561 
14400 0 3 20.3541 24.7023 27.029 
17997 0 3 19.2389 27.1869 26.9154 
7531 0 3 19.8252 23.4396 28.3843 
19410 0 3 19.694 24.824 27.9097 
3740 0 3 22.1685 25.928 29.0642 
17583 0 3 20.0219 25.8189 30.5002 
21777 0 3 19.3376 29.3655 2.19217 
17225 0 3 20.0533 31.6736 1.66884 
15715 0 3 17.4357 32.9705 4.13768 
6305 0 3 19.2754 32.6656 3.43788 
7915 0 3 20.436 33.2057 4.53485 
11443 0 3 20.1134 29.6542 8.82416 
1363 0 3 18.5301 29.5674 9.97794 
18161 0 3 21.3983 30.417 10.3005 
20829 0 3 19.1526 32.6657 13.1771 
9020 0 3 17.2863 28.4777 15.0825 
1 0 3 18.3244 29.0818 15.1771 
8217 0 3 18.3447 30.8666 14.7995 
19228 0 3 19.0389 32.1514 14.2382 
16815 0 3 17.7455 32.2312 16.8227 
25762 0 3 19.4394 30.5175 19.6498 
7156 0 3 22.1902 30.0518 18.8739 
21212 0 3 18.3632 31.8355 22.3755 
21434 0 3 17.5387 28.7806 23.1503 
6550 0 3 20.5862 28.5109 22.6673 
2694 0 3 18.8772 28.2772 24.1106 
13095 0 3 18.7846 30.0169 24.2096 
20790 0 3 20.2463 28.7623 24.551 
17905 0 3 20.7223 29.1803 28.3724 
2171 0 3 22.3712 30.4644 28.3673 
20008 0 3 18.9365 30.9425 31.1561 
10032 0 3 21.8286 32.3912 29.9351 
16207 0 3 21.7596 30.7434 32.2251 
6572 0 3 17.7614 31.7368 32.7317 
2897 0 3 22.5633 5.72956 0.869346 
16338 0 3 23.011 6.03132 1.87752 
24612 0 3 22.944 1.72603 3.9365 
13748 0 3 24.5966 1.04222 2.55019 
6497 0 3 27.2392 3.6228 4.05143 
6227 0 3 22.8465 4.18963 6.04049 
21237 0 3 25.9379 3.67756 5.91878 
1654 0 3 26.7647 3.46999 6.61656 
5846 0 3 25.9091 5.02896 9.56367 
10920 0 3 24.0892 5.74413 12.1487 
16742 0 3 22.4364 4.58715 12.8681 
15207 0 3 26.4572 3.03888 16.6206 
4860 0 3 27.6333 3.71138 16.4184 
5584 0 3 22.6147 3.49064 18.4822 
502 0 3 26.7438 4.5563 22.601 
22514 0 3 23.4853 1.25047 25.9244 
4972 0 3 23.0013 4.13508 25.6654 
13445 0 3 24.4616 4.10988 25.7784 
12619 0 3 23.7785 3.42092 26.2949 
25219 0 3 24.0775 5.05996 26.543 
8769 0 3 24.2279 1.84897 30.5398 
20996 0 3 23.9515 1.14448 32.7213 
9005 0 3 23.7413 6.32873 1.08357 
23952 0 3 23.0509 10.1118 2.02279 
17067 0 3 27.2596 9.9531 3.88351 
25589 0 3 26.6521 9.23886 4.58214 
4893 0 3 24.9832 8.64018 7.15446 
4092 0 3 26.1689 11.2449 8.08811 
20459 0 3 22.8642 6.86702 11.1275 
7436 0 3 24.3911 7.49629 10.0372 
2500 0 3 24.3354 7.75144 14.6986 
22780 0 3 24.394 8.29668 13.8447 
22699 0 3 23.2495 10.0498 13.5437 
7830 0 3 23.3113 11.0567 15.319 
16336 0 3 23.1729 9.86901 15.9589 
2684 0 3 27.6112 9.26008 18.3337 
20826 0 3 27.7195 6.56844 20.5904 
21794 0 3 23.6269 10.311 18.8785 
21337 0 3 25.6005 10.1845 22.0778 
24107 0 3 23.4316 6.67405 22.6975 
24933 0 3 25.7825 8.38355 23.0023 
2139 0 3 27.1871 9.23569 26.8548 
7033 0 3 27.0936 7.65219 29.0284 
11959 0 3 25.1768 9.545 30.2028 
10567 0 3 24.5765 8.05424 33.0403 
20919 0 3 26.6344 8.47075 32.4179 
18096 0 3 23.9903 10.6878 32.1287 
26104 0 3 22.5739 12.8218 2.2327 
13329 0 3 26.2634 12.9161 2.04947 
20947 0 3 24.1509 14.2933 1.8773 
1577 0 3 22.8104 16.7622 3.26708 
4453 0 3 27.7185 16.5465 3.77692 
17876 0 3 26.5047 11.6646 4.47739 
21132 0 3 25.8741 14.6752 4.97731 
8460 0 3 23.4359 13.3075 7.55165 
11938 0 3 25.0346 14.5405 7.08621 
24535 0 3 24.5188 14.4725 8.64624 
990 0 3 24.8715 16.2456 9.09294 
13362 0 3 25.9838 16.558 9.26944 
9110 0 3 25.0109 12.6393 10.0723 
7767 0 3 26.9578 15.4938 11.2024 
18150 0 3 22.5795 15.1699 12.2366 
13441 0 3 23.4464 13.9678 14.0985 
10439 0 3 23.544 15.3993 13.9744 
26598 0 3 27.486 16.2647 14.0151 
7239 0 3 23.1738 16.4546 16.4828 
10317 0 3 26.0855 12.2102 18.5142 
4686 0 3 24.4825 15.8143 18.4396 
9233 0 3 22.8233 13.5465 19.7627 
22704 0 3 24.7575 16.761 20.4946 
992 0 3 27.7589 15.4635 19.2772 
9566 0 3 27.4428 12.2486 23.5358 
22562 0 3 23.7802 14.3497 22.6025 
21 0 3 22.5418 13.8292 22.6131 
20448 0 3 25.3801 14.4836 23.5052 
17747 0 3 22.9801 15.2183 22.5854 
20506 0 3 27.142 11.7414 27.4522 
16206 0 3 24.4586 13.6651 26.0838 
14919 0 3 24.2211 12.1715 28.0445 
13261 0 3 26.0049 14.6219 31.0799 
1767 0 3 25.7674 17.2047 2.12949 
14571 0 3 26.4683 18.8567 4.09695 
23772 0 3 23.8207 19.5292 6.07253 
3987 0 3 24.9909 19.8754 5.78446 
12214 0 3 27.5516 22.3653 12.652 
4868 0 3 26.3845 19.4383 14.3644 
7741 0 3 23.2153 20.0454 15.9009 
8049 0 3 24.8702 21.2972 16.1578 
13656 0 3 23.3623 17.8197 17.6884 
18969 0 3 23.9536 17.2004 18.3527 
1140 0 3 24.3105 20.4462 19.2133 
23342 0 3 27.2637 20.2755 20.0885 
22549 0 3 26.4952 17.0779 21.6563 
382 0 3 22.9431 20.5558 22.0764 
720 0 3 23.988 20.2506 23.2026 
22440 0 3 26.8407 22.2717 24.4403 
584 0 3 25.3642 19.396 26.2274 
11953 0 3 27.5338 21.0075 26.8608 
188 0 3 22.5171 17.3567 29.7791 
8554 0 3 24.5694 19.0257 30.1762 
20932 0 3 27.5021 23.1789 1.79435 
2742 0 3 22.698 24.0106 8.28982 
2170 0 3 25.3965 22.4412 9.75505 
16403 0 3 27.0464 22.4742 10.5467 
24517 0 3 26.3051 24.2397 10.1701 
3997 0 3 26.4064 26.639 10.0091 
3687 0 3 22.4539 26.1951 11.9177 
11730 0 3 25.9919 24.1687 15.0629 
14130 0 3 23.1961 24.6483 13.7203 
13142 0 3 26.414 23.0202 18.0531 
2473 0 3 26.3111 25.1794 17.5479 
26051 0 3 24.0671 23.4108 18.8772 
6263 0 3 25.0024 26.8759 20.2044 
7266 0 3 25.9639 26.6424 20.4918 
20472 0 3 24.2541 23.3464 21.3196 
1566 0 3 27.6745 25.5536 21.1666 
23813 0 3 24.1181 23.9379 23.314 
24423 0 3 26.2351 23.5533 26.7625 
14741 0 3 27.5108 27.2234 28.6244 
11626 0 3 25.3556 22.7813 31.1831 
9789 0 3 23.9282 27.3192 29.9147 
7927 0 3 26.1755 30.3506 5.79574 
26766 0 3 27.1665 30.1001 6.01166 
9852 0 3 27.4855 29.3589 6.82819 
7833 0 3 26.0777 29.7311 6.54241 
6822 0 3 27.2341 31.0201 7.00697 
20177 0 3 23.4111 30.3828 11.0274 
20756 0 3 25.5704 31.1101 10.0915 
4688 0 3 26.0366 33.0758 10.3287 
24187 0 3 22.7857 30.8315 12.3177 
2956 0 3 24.526 31.8221 12.4862 
5189 0 3 26.3979 30.8463 15.0354 
12648 0 3 23.4124 30.9116 16.0662 
22719 0 3 23.8421 32.9801 18.1812 
8630 0 3 22.4513 28.8912 19.1575 
18510 0 3 25.074 29.7974 19.0242 
26064 0 3 22.5974 33.2001 20.4749 
20639 0 3 27.7808 32.3738 20.5152 
12798 0 3 26.5044 32.7985 21.2506 
17171 0 3 26.1313 28.3422 22.4594 
24718 0 3 27.7103 28.5687 23.6886 
26935 0 3 24.2521 32.756 23.6376 
7657 0 3 24.2203 28.2672 28.556 
18900 0 3 24.5945 29.5243 27.9593 
7019 0 3 24.0747 30.7518 29.6362 
1134 0 3 26.9728 32.3844 28.3387 
1242 0 3 23.1845 27.9499 30.6725 
18101 0 3 25.9262 29.8312 32.66 
22044 0 3 26.7596 33.2211 32.254 
5516 0 3 28.7874 5.99039 0.979661 
14274 0 3 30.7902 1.20655 4.14392 
22217 0 3 29.1444 3.39199 3.7296 
3602 0 3 32.3129 2.19583 5.86146 
23935 0 3 30.7227 2.58066 4.41824 
2294 0 3 30.0039 0.778944 6.69643 
13847 0 3 32.5485 4.31001 9.75143 
10689 0 3 32.6877 1.70701 12.4839 
26949 0 3 32.0647 5.91728 12.4876 
6740 0 3 32.3924 4.52362 12.7636 
2548 0 3 30.4208 1.57411 14.549 
24098 0 3 31.6819 1.58582 14.9011 
7206 0 3 32.5985 1.79874 16.7161 
22161 0 3 28.6314 1.4278 17.7118 
261 0 3 30.1338 0.755081 17.4083 
23934 0 3 31.0514 2.27978 18.2378 
25597 0 3 29.8372 3.23233 18.5849 
1348 0 3 31.1111 1.88865 20.9208 
23429 0 3 29.6693 4.0259 24.0336 
17618 0 3 28.2828 5.89539 22.4633 
23938 0 3 32.7873 1.96498 24.5794 
3338 0 3 29.5212 6.02199 25.515 
26048 0 3 31.6296 1.89427 27.0824 
24929 0 3 32.7014 1.84329 28.1251 
18985 0 3 28.7873 5.54316 28.4767 
172 0 3 30.1847 3.01536 31.0345 
12589 0 3 30.6342 5.23805 31.64 
526 0 3 31.313 7.15347 1.73082 
24548 0 3 30.5787 6.57668 3.33995 
20927 0 3 32.4928 8.02711 3.83484 
12821 0 3 31.3439 8.34309 5.47912 
20898 0 3 28.1365 11.3824 5.24158 
9099 0 3 32.063 10.2386 6.029 
11088 0 3 31.0209 8.21692 6.64541 
7842 0 3 31.8421 8.6582 7.19784 
11801 0 3 32.2153 9.10451 6.31066 
4864 0 3 28.7726 9.04203 9.10889 
8098 0 3 32.8013 7.96168 11.5054 
3449 0 3 28.7609 9.78965 9.967 
4806 0 3 27.8899 6.51343 12.2584 
13181 0 3 31.0643 9.66922 11.7867 
2176 0 3 33.0302 10.9009 14.3862 
13742 0 3 32.6445 10.1282 13.9152 
15356 0 3 32.4155 6.17373 17.4484 
19500 0 3 33.0881 9.16444 17.7958 
2950 0 3 33.0224 10.468 18.6685 
1761 0 3 29.6843 11.2595 19.8725 
1250 0 3 29.9749 6.99139 23.1022 
20458 0 3 28.0153 9.54344 22.6272 
7185 0 3 31.2051 11.4345 22.6801 
15031 0 3 33.1839 10.6058 25.0279 
15878 0 3 28.4039 9.95679 26.5893 
15812 0 3 33.2075 9.80987 27.5195 
23788 0 3 27.9641 6.28592 28.1783 
22506 0 3 29.6416 9.34043 28.1263 
2729 0 3 28.3504 9.66204 31.5518 
4819 0 3 31.411 13.629 2.24184 
10814 0 3 28.1133 16.2965 9.77659 
6757 0 3 30.0124 15.8326 10.2005 
14253 0 3 29.9938 16.6158 12.9727 
4256 0 3 30.5222 14.4014 14.339 
15693 0 3 31.3625 12.971 15.9836 
4367 0 3 29.6902 14.3933 16.2366 
25201 0 3 30.8293 13.8635 16.4885 
2705 0 3 28.0522 15.6152 15.5356 
5995 0 3 32.3134 12.191 17.2238 
26857 0 3 28.6705 16.6194 18.1754 
8526 0 3 28.5092 15.7762 21.8282 
2230 0 3 28.0912 16.8496 21.522 
22388 0 3 31.5215 16.3296 21.4047 
15973 0 3 31.3203 13.7448 23.9674 
16051 0 3 29.3382 16.8245 27.2541 
6284 0 3 29.6547 15.8833 26.2424 
19978 0 3 28.4409 15.7844 32.3108 
7391 0 3 32.5118 17.3491 4.44291 
4640 0 3 30.2791 20.0353 14.753 
12075 0 3 32.5541 19.9079 13.7374 
11684 0 3 31.0973 18.9623 16.1412 
10415 0 3 31.4997 18.8929 17.3384 
6970 0 3 32.675 22.2679 17.1496 
8988 0 3 29.2721 19.4516 20.2116 
26601 0 3 32.2561 18.9812 20.0635 
12841 0 3 32.7119 18.4244 21.1906 
9519 0 3 29.5542 19.7308 21.303 
20818 0 3 28.6466 21.64 21.022 
11842 0 3 29.5889 17.2863 25.4429 
9421 0 3 28.8379 20.5868 25.281 
15470 0 3 30.65 20.3775 26.1876 
9103 0 3 31.5302 17.4717 29.014 
8104 0 3 29.7164 19.5229 30.7082 
955 0 3 33.2586 17.8563 32.6387 
7692 0 3 31.0912 27.7761 1.16968 
14218 0 3 32.4981 22.8537 4.26755 
497 0 3 30.1582 24.6747 2.72765 
22073 0 3 28.6494 24.6466 6.03372 
20282 0 3 32.0994 25.7023 8.27801 
26927 0 3 30.0636 23.3906 15.8171 
15501 0 3 31.3389 26.8119 19.9639 
22263 0 3 30.1625 23.2257 23.6392 
19369 0 3 32.5645 23.2024 23.5965 
8513 0 3 30.5661 26.0368 23.2005 
21465 0 3 31.7594 27.3712 22.9011 
21258 0 3 31.213 22.9786 25.0021 
10643 0 3 29.8702 23.6261 26.1022 
14285 0 3 30.1456 24.7988 26.3062 
24116 0 3 32.5043 25.603 27.3115 
6827 0 3 29.2913 27.6817 28.6817 
22264 0 3 30.3541 26.6115 28.2093 
19791 0 3 29.3628 22.8412 29.6677 
14214 0 3 28.7074 26.6399 31.1009 
9706 0 3 32.8362 31.0732 1.28907 