ITEM: TIMESTEP
7000000
ITEM: NUMBER OF ATOMS
950
ITEM: BOX BOUNDS pp pp pp
7.3598007983716585e-01 3.3264019920151441e+01
7.3598007983716585e-01 3.3264019920151441e+01
7.3598007983716585e-01 3.3264019920151441e+01
ITEM: ATOMS id mol type x y z 
27341 318 4 1.22349 4.045 7.43069 
27358 319 4 1.21985 4.00604 7.39484 
27342 318 4 1.86629 3.77471 8.19594 
27359 319 4 1.86517 3.73602 8.15806 
27331 318 4 2.14822 3.82734 9.19072 
27360 319 4 2.15721 3.79822 9.14936 
27325 318 4 1.33385 4.40362 9.12166 
27349 319 4 1.35196 4.38705 9.07933 
27348 319 4 0.88328 4.49096 8.20207 
27330 318 4 0.87149 4.51245 8.24164 
27332 318 4 1.99372 4.1888 10.1485 
27361 319 4 2.01772 4.17597 10.1031 
27344 319 4 1.01539 4.87197 9.88656 
27326 318 4 0.981851 4.87106 9.93261 
27333 318 4 1.44421 4.76223 10.8126 
27350 319 4 1.48408 4.76806 10.7638 
27444 324 4 2.02445 1.37796 13.0485 
27455 324 4 2.41828 1.36389 12.1294 
27456 324 4 2.65484 2.29799 12.508 
27445 324 4 2.61696 2.98933 13.2777 
27438 324 4 1.63061 1.39202 13.9676 
27439 324 4 2.12379 2.19068 13.6227 
27440 324 4 1.72995 2.20474 14.5418 
27441 324 4 1.23678 1.40608 14.8867 
27446 324 4 2.31479 3.25268 14.2323 
27447 324 4 1.82929 3.01746 15.1159 
27449 324 4 0.842944 1.42015 15.8058 
27448 324 4 1.29056 2.34671 15.6919 
27770 341 4 3.23753 15.2563 6.13583 
27712 338 4 3.61104 15.4684 5.24944 
27769 341 4 3.66992 15.5146 5.23128 
27767 341 4 5.6717 16.2634 5.88886 
27779 341 4 5.43198 16.2785 4.67301 
27705 338 4 4.71286 15.8754 5.64489 
27722 338 4 5.36653 16.2147 4.64812 
27762 341 4 4.76352 15.9179 5.65235 
27710 338 4 5.62605 16.2216 5.85997 
27711 338 4 4.40677 15.8292 4.69398 
27768 341 4 4.47314 15.8887 4.69586 
27771 341 4 3.29183 15.1832 7.16712 
27714 338 4 3.26345 15.1754 7.19713 
27713 338 4 3.19256 15.2291 6.16566 
27706 338 4 4.10575 15.5754 6.38073 
27763 341 4 4.14571 15.6017 6.37234 
27764 341 4 4.43608 15.631 7.32883 
27707 338 4 4.41183 15.6216 7.33164 
27709 338 4 5.93213 16.2678 6.81087 
27704 338 4 5.01894 15.9216 6.5958 
27761 341 4 5.05389 15.9472 6.60884 
27708 338 4 5.32503 15.9678 7.54671 
27765 341 4 5.34426 15.9764 7.56534 
27766 341 4 5.96207 16.2926 6.84535 
27715 338 4 3.80473 15.3215 8.06747 
27772 341 4 3.81827 15.3148 8.04881 
27773 341 4 4.6758 15.6158 8.54467 
27716 338 4 4.67135 15.6285 8.54349 
27717 338 4 5.63111 16.014 8.49762 
27774 341 4 5.63463 16.0056 8.52183 
27739 339 4 3.97351 19.5563 1.95058 
27948 350 4 4.00157 19.5609 1.95925 
27853 345 4 3.97642 19.6106 1.93186 
27815 343 4 3.97229 19.5687 1.96776 
27738 339 4 3.07611 20.0167 2.1841 
27947 350 4 3.11028 20.0286 2.20155 
27814 343 4 3.08185 20.0407 2.20471 
27852 345 4 3.07608 20.0574 2.17994 
27740 339 4 4.97694 19.3957 2.14846 
27816 343 4 4.9744 19.3953 2.16157 
27854 345 4 4.98181 19.4532 2.12233 
27949 350 4 5.0054 19.3916 2.14768 
27728 339 4 3.72266 20.3459 2.87235 
27937 350 4 3.76593 20.3515 2.88414 
27842 345 4 3.72229 20.3743 2.87426 
27804 343 4 3.73545 20.362 2.89004 
27855 345 4 5.82286 19.6275 2.70033 
27950 350 4 5.85278 19.5659 2.71634 
27741 339 4 5.81754 19.5778 2.72472 
27843 345 4 4.67515 20.0722 2.84546 
27729 339 4 4.67308 20.0353 2.85453 
27805 343 4 4.68172 20.0392 2.86846 
27817 343 4 5.81966 19.567 2.7342 
27938 350 4 4.71348 20.033 2.85721 
27838 345 4 5.32136 20.389 3.53978 
27933 350 4 5.36912 20.3559 3.5398 
27724 339 4 5.31964 20.3645 3.54277 
27800 343 4 5.33532 20.3605 3.55379 
27737 339 4 2.52519 20.6536 2.78645 
27736 339 4 2.46839 21.2961 3.59623 
27851 345 4 2.52205 20.6741 2.80011 
27813 343 4 2.54167 20.6849 2.80892 
27812 343 4 2.4965 21.3286 3.6185 
27850 345 4 2.46278 21.2953 3.62619 
27945 350 4 2.52646 21.3115 3.62059 
27946 350 4 2.57036 20.6694 2.80964 
27727 339 4 3.4188 20.9856 3.57841 
27841 345 4 3.41564 20.9932 3.59739 
27803 343 4 3.44277 21.0059 3.59693 
27936 350 4 3.47401 20.9929 3.59366 
27802 343 4 4.09637 21.3272 4.28225 
27726 339 4 4.06536 21.3147 4.26665 
27935 350 4 4.12965 21.3158 4.27625 
27840 345 4 4.06185 21.3101 4.2917 
27837 345 4 4.3685 20.6911 3.56858 
27932 350 4 4.42157 20.6744 3.56673 
27799 343 4 4.38904 20.6832 3.57536 
27723 339 4 4.36922 20.675 3.56059 
27934 350 4 5.07721 20.9973 4.24932 
27725 339 4 5.01578 21.0042 4.24883 
27801 343 4 5.04264 21.0044 4.26068 
27839 345 4 5.01471 21.0079 4.2629 
27811 343 4 2.95843 21.7994 4.41652 
27944 350 4 2.99035 21.7828 4.41711 
27735 339 4 2.92091 21.7723 4.39645 
27849 345 4 2.91414 21.7547 4.43683 
27734 339 4 3.7615 21.9544 4.97271 
27943 350 4 3.83774 21.9572 4.98577 
27810 343 4 3.80369 21.9711 4.98915 
27848 345 4 3.75519 21.929 5.01483 
27942 350 4 4.84157 21.7879 5.1742 
27846 345 4 5.66092 21.3248 4.95722 
27732 339 4 5.66234 21.3333 4.93707 
27809 343 4 4.8058 21.7977 5.18295 
27808 343 4 5.69624 21.3257 4.94601 
27941 350 4 5.73285 21.3202 4.93191 
27733 339 4 4.76494 21.7937 5.17059 
27847 345 4 4.76058 21.7717 5.2053 
27655 335 4 5.8658 25.8289 13.2447 
27617 333 4 5.90258 25.812 13.2082 
27665 335 4 6.04146 27.2514 11.8498 
27648 335 4 5.85935 27.0544 13.0598 
27654 335 4 5.98815 26.352 12.3597 
27616 333 4 6.03266 26.3528 12.335 
27610 333 4 5.89232 27.0408 13.0471 
27627 333 4 6.08753 27.2623 11.8434 
27618 333 4 5.73214 25.7848 14.229 
27656 335 4 5.70722 25.8224 14.2678 
27609 333 4 5.75198 27.7287 13.7592 
27650 335 4 5.59008 27.492 14.7139 
27612 333 4 5.60172 27.4447 14.7062 
27619 333 4 5.56702 26.2784 15.1239 
27657 335 4 5.55488 26.3343 15.1548 
27649 335 4 5.71888 26.7896 14.0138 
27611 333 4 5.74206 26.7567 13.9941 
27647 335 4 5.73055 27.7568 13.7598 
27658 335 4 5.44962 27.2273 15.6679 
27620 333 4 5.45146 27.1607 15.6532 
27158 309 4 4.00982 29.094 3.9338 
27168 309 4 3.90856 29.3867 2.98295 
27166 309 4 5.59818 28.4996 3.58168 
27157 309 4 4.85463 28.6505 4.23316 
27167 309 4 4.85273 28.9651 3.03443 
27170 309 4 2.42147 29.6884 4.28592 
27169 309 4 3.01866 29.6515 3.44102 
27171 309 4 2.27701 29.4876 5.29125 
27153 309 4 4.11108 28.8013 4.88465 
27155 309 4 4.21234 28.5086 5.8355 
27154 309 4 3.36754 28.9521 5.53614 
27159 309 4 3.26628 29.2448 4.58529 
27156 309 4 4.95589 28.3578 5.18401 
27165 309 4 5.94516 28.115 4.47805 
27164 309 4 5.8007 27.9142 5.48338 
27162 309 4 4.3136 28.2159 6.78635 
27161 309 4 3.36943 28.6375 6.73487 
27160 309 4 2.62399 29.103 6.18762 
27163 309 4 5.20351 27.9512 6.32827 
27664 335 4 6.01147 28.2863 11.8517 
27615 333 4 5.90224 28.0128 12.8122 
27653 335 4 5.87101 28.0215 12.8058 
27626 333 4 6.05249 28.2968 11.8652 
27625 333 4 5.93693 29.1791 12.3944 
27663 335 4 5.90621 29.1793 12.3649 
27662 335 4 5.75387 29.6911 13.2518 
27624 333 4 5.77181 29.6727 13.2893 
27453 324 4 1.43194 32.2946 12.8193 
27454 324 4 1.97067 32.9654 12.2433 
27652 335 4 5.74221 28.7239 13.5058 
27614 333 4 5.7619 28.7007 13.5242 
27651 335 4 5.60175 28.4592 14.4599 
27613 333 4 5.61164 28.4167 14.4712 
27622 333 4 5.4713 29.1047 15.1833 
27660 335 4 5.47295 29.1616 15.16 
27623 333 4 5.60138 29.6455 14.3101 
27661 335 4 5.59529 29.6846 14.2749 
27443 324 4 1.53127 33.1073 13.3934 
27452 324 4 0.946439 32.0594 13.7029 
27442 324 4 1.13744 33.1214 14.3125 
27659 335 4 5.41963 28.2621 15.6698 
27621 333 4 5.41642 28.1952 15.6749 
27307 317 4 7.56276 1.51213 18.0999 
27230 313 4 7.55222 1.49485 18.0947 
27231 313 4 7.50977 2.4207 18.4703 
27308 317 4 7.52345 2.4333 18.4872 
27236 313 4 7.73038 1.35825 17.1202 
27237 313 4 7.73649 2.38506 17.2524 
27315 317 4 7.76873 2.41156 17.2725 
27314 317 4 7.75473 1.38669 17.1266 
27316 317 4 7.67611 3.22903 17.901 
27238 313 4 7.64548 3.20995 17.8714 
27305 317 4 7.37079 1.63757 19.0733 
27229 313 4 7.37406 1.63145 19.0692 
27311 317 4 7.21813 0.841844 19.6595 
27234 313 4 7.23835 0.842196 19.6682 
27233 313 4 7.1959 1.76804 20.0437 
27310 317 4 7.17882 1.76301 20.0467 
27232 313 4 7.33161 2.55729 19.4448 
27309 317 4 7.33148 2.55874 19.4605 
27317 317 4 7.50168 3.62008 18.8436 
27239 313 4 7.48174 3.61187 18.8113 
27318 317 4 7.29217 3.47991 19.8478 
27240 313 4 7.28915 3.48314 19.8204 
27242 313 4 7.01773 1.90464 21.0182 
27320 317 4 6.98685 1.88845 21.0201 
27321 317 4 6.97285 0.863589 20.8741 
27243 313 4 7.01163 0.877828 20.8861 
27241 313 4 7.11931 2.85825 20.6282 
27319 317 4 7.10374 2.84609 20.6444 
27753 340 4 9.31009 8.583 25.6727 
27754 340 4 10.1344 9.20798 25.6305 
27755 340 4 10.6234 10.0687 25.9335 
27750 340 4 7.12024 9.24096 27.3376 
27751 340 4 7.56987 8.60204 26.6583 
27752 340 4 8.37142 8.36121 26.0489 
27745 340 4 9.09665 9.33537 26.2959 
27744 340 4 8.22654 9.34489 26.7887 
27746 340 4 9.75332 10.0782 26.4264 
27743 340 4 8.0131 10.0973 27.412 
27747 340 4 9.53988 10.8306 27.0496 
27748 340 4 8.66977 10.8401 27.5424 
27742 340 4 8.88321 10.0877 26.9192 
27756 340 4 10.6462 10.9345 26.5007 
27757 340 4 10.1966 11.5734 27.18 
27749 340 4 7.14299 10.1068 27.9048 
27760 340 4 7.63203 10.9675 28.2079 
27721 338 4 6.23316 16.5216 5.12413 
27778 341 4 6.28951 16.5796 5.16887 
27777 341 4 6.81595 16.7112 6.05057 
27720 338 4 6.77443 16.6678 5.99447 
27776 341 4 6.87025 16.638 7.08186 
27719 338 4 6.84533 16.614 7.02595 
27718 338 4 6.42684 16.3747 7.94216 
27775 341 4 6.43786 16.3798 7.9864 
27758 340 4 9.39501 11.8143 27.7894 
27759 340 4 8.45633 11.5925 28.1657 
27844 345 4 6.27422 20.0869 3.51097 
27939 350 4 6.31668 20.0373 3.51287 
27806 343 4 6.28159 20.0377 3.53222 
27730 339 4 6.27006 20.0539 3.52495 
27845 345 4 6.21495 20.7081 4.33705 
27940 350 4 6.27278 20.6794 4.32382 
27731 339 4 6.21325 20.6965 4.33472 
27807 343 4 6.23641 20.6815 4.34179 
27391 321 4 10.8529 25.1761 2.27848 
27527 328 4 10.8774 25.1534 2.2808 
27418 322 4 10.8326 25.1099 2.24834 
27562 330 4 10.8573 25.1552 2.26574 
27488 326 4 10.883 25.1388 2.26444 
27528 328 4 11.546 25.7022 1.71191 
27479 326 4 9.95311 25.9578 2.28638 
27401 322 4 9.91412 25.9413 2.28508 
27384 321 4 9.93614 26.0099 2.2936 
27554 330 4 9.93096 25.9782 2.286 
27518 328 4 10.4037 26.011 2.08025 
27489 326 4 11.5614 25.6845 1.70429 
27563 330 4 11.5426 25.7017 1.71466 
27417 322 4 11.5193 25.6569 1.6997 
27390 321 4 11.5402 25.7067 1.71466 
27515 328 4 9.45624 27.7261 1.67915 
27478 326 4 9.14805 26.5461 2.36288 
27516 328 4 9.00413 27.0211 2.22556 
27558 330 4 9.1335 27.4758 1.9373 
27403 322 4 9.1286 27.4505 1.96055 
27386 321 4 9.15324 27.5114 1.92916 
27477 326 4 9.14622 27.4494 1.93376 
27517 328 4 9.47785 26.1635 2.42611 
27402 322 4 9.11722 26.5391 2.37203 
27553 330 4 9.12794 26.5696 2.36021 
27385 321 4 9.14048 26.6115 2.3651 
27395 321 4 8.09667 27.2599 2.52616 
27484 326 4 8.09418 27.1767 2.52942 
27570 330 4 8.07561 27.2037 2.52281 
27387 321 4 9.96165 27.8098 1.42172 
27565 330 4 11.5537 27.5141 0.868831 
27557 330 4 9.94208 27.7906 1.44017 
27388 321 4 11.5657 27.5066 0.842777 
27482 326 4 9.94946 27.7644 1.42816 
27555 330 4 10.7395 26.2931 1.78887 
27406 322 4 10.7224 26.2548 1.78665 
27480 326 4 10.7563 26.2728 1.78078 
27381 321 4 9.94889 26.9098 1.85766 
27514 328 4 9.92996 26.8685 1.8797 
27400 322 4 9.9255 26.8526 1.8736 
27476 326 4 9.95128 26.8611 1.85727 
27552 330 4 9.93652 26.8844 1.86309 
27382 321 4 10.7573 27.2082 1.35022 
27519 328 4 10.8558 26.716 1.53384 
27383 321 4 10.7446 26.3083 1.78616 
27556 330 4 10.7451 27.1992 1.36596 
27481 326 4 10.7545 27.1761 1.35167 
27405 322 4 10.7338 27.1662 1.37517 
27520 328 4 10.3821 27.5736 1.33329 
27491 326 4 11.5578 27.4911 0.846061 
27404 322 4 9.93688 27.764 1.46212 
27530 328 4 11.5211 27.5065 0.849399 
27415 322 4 11.5421 27.4797 0.876743 
27560 330 4 8.99643 25.4745 2.92546 
27486 326 4 9.02589 25.4544 2.93659 
27525 328 4 9.02573 25.4585 2.97252 
27408 322 4 8.97904 25.4382 2.92427 
27393 321 4 9.00069 25.5262 2.94698 
27407 322 4 9.90275 25.0299 2.69656 
27561 330 4 9.9254 25.0721 2.70892 
27526 328 4 9.95491 25.0642 2.74221 
27392 321 4 9.92338 25.11 2.72954 
27487 326 4 9.95493 25.0546 2.7155 
27409 322 4 8.30894 26.2256 2.87046 
27559 330 4 8.31936 26.2548 2.85734 
27524 328 4 8.33884 26.2306 2.91 
27394 321 4 8.33206 26.3131 2.87254 
27485 326 4 8.34481 26.2311 2.86848 
27410 322 4 8.07199 27.181 2.54954 
27523 328 4 8.07829 27.1736 2.57142 
27501 327 4 10.2561 24.0081 6.0228 
27512 327 4 10.9801 23.3206 6.07911 
27513 327 4 11.4408 24.1639 5.69386 
27498 327 4 8.80804 25.3831 5.91017 
27497 327 4 9.73701 25.6102 5.61776 
27495 327 4 9.53207 24.6956 5.96649 
27503 327 4 10.8414 26.0139 5.22617 
27496 327 4 10.461 24.9227 5.67408 
27502 327 4 11.39 25.1497 5.38167 
27505 327 4 8.93267 26.5455 5.49879 
27506 327 4 8.08401 26.0706 5.85386 
27504 327 4 9.94195 26.5248 5.26904 
27509 327 4 8.22274 23.3774 6.7068 
27500 327 4 9.32713 23.781 6.31521 
27510 327 4 9.12219 22.8665 6.66393 
27511 327 4 10.1315 22.8457 6.43418 
27508 327 4 7.67413 24.2415 6.5513 
27507 327 4 7.62335 25.2273 6.23911 
27499 327 4 8.6031 24.4685 6.2589 
27004 301 4 11.0752 27.0807 9.5953 
27878 347 4 11.0841 27.0387 9.62421 
27885 347 4 10.1289 27.5619 9.03283 
27886 347 4 10.2205 26.5935 9.38746 
27012 301 4 10.2012 26.6541 9.36225 
27011 301 4 10.1228 27.6287 9.02197 
27013 301 4 10.7479 25.908 9.82742 
27887 347 4 10.775 25.8638 9.86896 
27050 303 4 9.43384 27.1813 10.9835 
27089 305 4 9.41587 27.2569 11.0057 
27051 303 4 9.97008 26.4515 11.4853 
27042 303 4 10.2836 27.6295 11.2613 
27090 305 4 9.92903 26.5056 11.4998 
27081 305 4 10.5415 27.2958 11.5227 
27091 305 4 10.7704 26.1778 12.0062 
27052 303 4 10.818 26.1575 12.0015 
27043 303 4 10.9756 27.1176 11.7703 
27082 305 4 11.4344 27.2236 11.9674 
27797 342 4 7.84681 27.0718 13.4672 
27930 349 4 7.81626 27.0809 13.4094 
27034 302 4 7.86798 27.1146 13.4439 
27919 349 4 8.59876 27.6464 13.6699 
27931 349 4 8.42897 26.4534 13.9596 
27798 342 4 8.46602 26.4679 14.0361 
27035 302 4 8.49809 26.5004 13.9894 
27781 342 4 9.37103 27.2839 14.2621 
27036 302 4 9.37827 26.3598 14.516 
27787 342 4 9.33687 26.3364 14.5803 
27920 349 4 9.29685 26.2972 14.502 
27914 349 4 9.33906 27.2546 14.2163 
27025 302 4 8.96473 27.3842 13.9542 
27786 342 4 8.626 27.6516 13.7055 
27038 302 4 10.9416 27.5132 14.9912 
27026 302 4 9.85202 27.4992 14.4009 
27921 349 4 10.1874 26.654 14.8913 
27788 342 4 10.226 26.7127 14.954 
27037 302 4 10.2727 26.7305 14.8827 
27789 342 4 10.8952 27.4959 15.0571 
27922 349 4 10.8619 27.4282 15.0231 
27915 349 4 10.1216 27.8201 14.4768 
27147 308 4 9.4021 27.2901 28.6726 
27146 308 4 8.49523 27.5105 29.1208 
27148 308 4 10.395 27.524 28.4955 
27483 326 4 8.34116 28.0377 2.01026 
27412 322 4 9.01846 28.5953 1.49887 
27397 321 4 9.04488 28.6436 1.43683 
27521 328 4 8.98252 28.5837 1.4786 
27494 326 4 9.01957 28.5834 1.4501 
27568 330 4 9.0157 28.6136 1.46044 
27522 328 4 8.31389 28.0349 2.04749 
27411 322 4 8.33169 28.0483 2.0475 
27396 321 4 8.35758 28.1129 2.00065 
27569 330 4 8.33048 28.0671 2.01151 
27398 321 4 9.97441 28.7097 0.985774 
27567 330 4 9.94764 28.6968 1.01725 
27413 322 4 9.94826 28.6754 1.05064 
27532 328 4 9.90501 28.6729 1.01719 
27493 326 4 9.94764 28.6677 0.999046 
27531 328 4 10.8342 28.2786 0.786883 
27414 322 4 10.872 28.267 0.82293 
27566 330 4 10.8766 28.2943 0.800711 
27492 326 4 10.8767 28.2679 0.777952 
27399 321 4 10.8971 28.2935 0.768334 
27877 347 4 11.2361 27.9966 9.38053 
27003 301 4 11.2414 28.039 9.36306 
27009 301 4 11.324 29.2279 9.0229 
27884 347 4 10.5245 28.5093 8.90009 
27010 301 4 10.5338 28.5708 8.89776 
27883 347 4 11.3016 29.182 9.02482 
27088 305 4 9.36845 28.2302 10.6563 
27049 303 4 9.35296 28.1512 10.6306 
27048 303 4 9.74911 29.1014 10.5211 
27077 305 4 11.1541 28.0859 11.5456 
27087 305 4 9.79949 29.165 10.5451 
27080 305 4 10.2613 28.1581 11.101 
27041 303 4 10.4412 28.5895 11.0301 
27079 305 4 10.8738 28.9482 11.1239 
27040 303 4 11.2909 29.0377 11.3078 
27039 303 4 11.1333 28.0777 11.539 
27086 305 4 10.5935 29.8106 10.7021 
27047 303 4 10.5161 29.7773 10.6843 
27046 303 4 11.4485 29.9978 11.0766 
27085 305 4 11.5377 29.994 11.0851 
27032 302 4 7.92107 29.0227 12.8469 
27928 349 4 7.90067 28.9957 12.8379 
27796 342 4 7.64517 27.9864 13.026 
27033 302 4 7.65678 28.0378 13.0257 
27929 349 4 7.62289 28.0115 12.9988 
27795 342 4 7.91513 28.9667 12.8307 
27918 349 4 8.64097 28.6039 13.3842 
27794 342 4 8.58434 29.7499 12.9337 
27927 349 4 8.57519 29.77 12.9698 
27031 302 4 8.59004 29.8054 12.9554 
27793 342 4 9.4735 30.1262 13.3074 
27030 302 4 9.48445 30.1761 13.3221 
27926 349 4 9.46569 30.1268 13.3591 
27785 342 4 8.66016 28.599 13.3873 
27024 302 4 8.54407 28.1529 13.4724 
27023 302 4 9.0107 29.0367 13.4373 
27784 342 4 9.43935 29.1787 13.6257 
27917 349 4 9.42348 29.1694 13.6448 
27913 349 4 9.38127 28.212 13.9305 
27020 302 4 9.43136 28.2679 13.9191 
27780 342 4 9.40519 28.2313 13.9439 
27782 342 4 10.1502 27.8636 14.5005 
27022 302 4 9.89799 29.1517 13.8839 
27783 342 4 10.1844 28.811 14.1822 
27916 349 4 10.1638 28.7775 14.1911 
27021 302 4 10.3186 28.383 14.3658 
27924 349 4 10.9463 29.3431 14.4517 
27923 349 4 11.1397 28.4125 14.8622 
27028 302 4 10.9947 29.4213 14.3943 
27791 342 4 10.9636 29.3908 14.4206 
27027 302 4 11.2059 28.4981 14.8125 
27790 342 4 11.1652 28.4762 14.8618 
27792 342 4 10.3444 29.9947 13.8517 
27029 302 4 10.3646 30.0355 13.8488 
27925 349 4 10.3336 29.9705 13.9015 
27313 317 4 7.63785 32.9571 17.5022 
27246 313 4 7.45896 32.3078 18.3181 
27312 317 4 7.44941 32.3233 18.2988 
27247 313 4 7.6288 32.9327 17.5103 
27306 317 4 7.4101 33.2444 18.6861 
27235 313 4 7.41651 33.2336 18.6937 
27245 313 4 7.26637 32.1791 19.3271 
27323 317 4 7.23991 32.1831 19.303 
27322 317 4 7.06547 32.5742 20.2456 
27244 313 4 7.10264 32.581 20.2671 
27138 308 4 9.56258 28.1377 29.1785 
27139 308 4 10.4654 28.5673 29.1606 
27149 308 4 11.2078 28.1494 28.6369 
27151 308 4 11.5287 29.8446 29.6487 
27145 308 4 7.91735 28.126 29.72 
27144 308 4 7.8233 28.9717 30.3096 
27137 308 4 8.8202 28.5556 29.7022 
27134 308 4 9.72305 28.9853 29.6843 
27136 308 4 8.98067 29.4032 30.2081 
27140 308 4 10.6259 29.4149 29.6665 
27143 308 4 8.23829 29.8211 30.7318 
27142 308 4 9.05112 30.4465 30.8732 
27135 308 4 9.88352 29.8328 30.1902 
27141 308 4 10.044 30.6804 30.6961 
27152 308 4 10.9509 30.4601 30.2479 
27186 310 4 16.9177 1.20496 18.5497 
27205 311 4 16.8983 1.255 18.4932 
27692 337 4 16.4223 5.2249 18.6473 
27645 334 4 16.4087 5.26587 18.6451 
27176 310 4 16.9087 1.58576 19.7291 
27195 311 4 16.8882 1.58149 19.6887 
27185 310 4 16.1063 1.38395 19.1674 
27204 311 4 16.0866 1.39547 19.1204 
27184 310 4 15.7249 1.67109 20.0861 
27203 311 4 15.7045 1.63563 20.0522 
27693 337 4 16.8724 4.3177 18.8622 
27644 334 4 16.8412 4.34707 18.8466 
27182 310 4 16.5183 2.2537 21.8271 
27183 310 4 15.8757 1.98944 21.0596 
27202 311 4 15.8544 1.91113 21.0388 
27194 311 4 16.772 1.83932 20.6479 
27175 310 4 16.7934 1.8885 20.6752 
27201 311 4 16.496 2.14814 21.816 
27646 334 4 16.3095 6.27515 18.8534 
27635 334 4 16.5702 7.10447 19.4156 
27702 337 4 16.5423 7.07571 19.3958 
27703 337 4 16.3014 6.23441 18.8426 
27866 346 4 15.9211 14.7301 12.765 
27678 336 4 15.9238 14.7024 12.7681 
27828 344 4 15.957 14.7602 12.6924 
27829 344 4 15.9022 13.9383 13.3195 
27277 315 4 14.3957 16.319 12.9605 
27296 316 4 14.4043 16.2557 12.9665 
27865 346 4 16.2096 15.707 12.5799 
27679 336 4 16.2182 15.6761 12.5753 
27827 344 4 16.2628 15.7331 12.514 
27864 346 4 16.6784 16.5772 12.888 
27680 336 4 16.6908 16.5463 12.8772 
27826 344 4 16.7377 16.5963 12.8322 
27294 316 4 14.6458 15.109 14.5873 
27275 315 4 14.658 15.1449 14.5583 
27830 344 4 16.1131 13.4876 14.2274 
27676 336 4 16.1163 13.4463 14.3126 
27868 346 4 16.125 13.4616 14.2979 
27677 336 4 15.8865 13.8862 13.404 
27867 346 4 15.8901 13.9082 13.3939 
27669 336 4 16.3849 14.5882 13.9128 
27821 344 4 16.398 14.631 13.8434 
27859 346 4 16.3862 14.6085 13.9073 
27668 336 4 16.7174 14.3953 14.836 
27822 344 4 16.7134 14.4263 14.77 
27860 346 4 16.7225 14.4093 14.8278 
27831 344 4 16.5331 13.5289 15.1728 
27276 315 4 14.3954 15.534 13.6355 
27295 316 4 14.3945 15.4826 13.655 
27288 316 4 14.8818 16.228 14.1099 
27269 315 4 14.8859 16.2727 14.0979 
27286 316 4 15.3691 16.9735 14.5647 
27268 315 4 15.2447 16.1337 15.0209 
27287 316 4 15.23 16.1042 15.0391 
27670 336 4 16.5507 15.4831 13.4985 
27858 346 4 16.546 15.5078 13.5003 
27820 344 4 16.5783 15.5284 13.4406 
27856 346 4 16.8823 15.3087 14.4208 
27818 344 4 16.8938 15.3237 14.3673 
27666 336 4 16.8832 15.2902 14.4217 
27675 336 4 16.5515 13.5004 15.2504 
27869 346 4 16.5628 13.5099 15.2348 
27274 315 4 15.113 15.256 15.4816 
27293 316 4 15.0909 15.2349 15.5135 
27303 316 4 16.0655 16.7259 16.4232 
27273 315 4 15.7351 16.8725 15.4832 
27292 316 4 15.7173 16.8497 15.4939 
27304 316 4 15.6105 15.8268 16.1855 
27284 315 4 16.0939 16.7335 16.4062 
27285 315 4 15.6386 15.8374 16.158 
27298 316 4 15.1276 18.1202 12.9439 
27279 315 4 15.1141 18.1855 12.9624 
27278 315 4 14.6588 17.2895 12.7141 
27297 316 4 14.6727 17.2211 12.7062 
27270 315 4 15.0176 17.1505 13.6371 
27289 316 4 15.0209 17.0973 13.6354 
27299 316 4 15.6473 18.7121 13.6159 
27280 315 4 15.6397 18.767 13.6387 
27290 316 4 15.5082 17.8428 14.0903 
27271 315 4 15.508 17.8892 14.0995 
27291 316 4 15.8564 17.719 15.0195 
27272 315 4 15.8668 17.7502 15.0225 
27267 315 4 15.3764 17.0115 14.5602 
27300 316 4 16.0924 18.8381 14.5421 
27281 315 4 16.0948 18.8781 14.562 
27301 316 4 16.3437 18.4644 15.4743 
27282 315 4 16.3573 18.489 15.4848 
27283 315 4 16.357 17.704 16.1598 
27302 316 4 16.3338 17.6913 16.1629 
27490 326 4 11.8084 26.5455 1.18512 
27416 322 4 11.779 26.5243 1.19766 
27389 321 4 11.8011 26.5597 1.18916 
27564 330 4 11.7974 26.5651 1.20336 
27529 328 4 11.7816 26.5635 1.18798 
27888 347 4 11.6437 25.5681 10.3483 
27889 347 4 12.5939 25.7858 10.6971 
27015 301 4 12.5742 25.7866 10.6338 
27014 301 4 11.6165 25.5905 10.2928 
27890 347 4 13.3709 26.4585 10.8218 
27016 301 4 13.3644 26.4437 10.7589 
27006 301 4 12.6567 26.9755 10.2936 
27880 347 4 12.6593 26.9712 10.3414 
27879 347 4 11.7957 26.526 10.1046 
27005 301 4 11.7828 26.5489 10.0606 
27875 347 4 11.9477 27.4839 9.86096 
27001 301 4 11.9491 27.5073 9.82835 
27017 301 4 13.7753 27.3858 10.6347 
27891 347 4 13.7666 27.406 10.6891 
27093 305 4 12.5086 27.0069 12.5462 
27054 303 4 12.5174 27.0539 12.557 
27044 303 4 11.8254 27.5658 12.048 
27053 303 4 11.7504 26.378 12.3938 
27092 305 4 11.7146 26.3613 12.3892 
27008 301 4 12.2816 29.424 9.36387 
27882 347 4 12.2517 29.3997 9.3736 
27876 347 4 12.0997 28.4418 9.61728 
27002 301 4 12.1154 28.4656 9.59611 
27881 347 4 12.8113 27.9291 10.0977 
27078 305 4 11.7666 28.8761 11.5685 
27019 301 4 13.1502 29.1065 9.82928 
27893 347 4 13.1204 29.1041 9.85296 
27007 301 4 12.823 27.9338 10.0614 
27892 347 4 13.6749 28.3743 10.3345 
27018 301 4 13.6969 28.3604 10.2945 
27056 303 4 12.8327 28.9741 12.0945 
27095 305 4 12.8923 28.915 12.0856 
27045 303 4 11.983 28.5259 11.8168 
27094 305 4 12.9397 27.9416 12.435 
27055 303 4 12.9136 28.0041 12.4475 
27083 305 4 12.0469 28.0138 11.9903 
27057 303 4 12.2965 29.7038 11.5928 
27084 305 4 12.3791 29.6662 11.5914 
27547 329 4 14.492 29.8518 14.6589 
27112 306 4 14.418 29.8161 14.6607 
27546 329 4 15.0995 30.1488 13.8749 
27113 306 4 15.0164 30.0913 13.862 
27102 306 4 15.3473 30.6356 14.6329 
27537 329 4 15.4095 30.6849 14.6601 
27114 306 4 15.7922 30.6582 13.4764 
27545 329 4 15.8732 30.7331 13.5118 
27103 306 4 16.5374 31.3649 13.6072 
27544 329 4 16.6057 31.4481 13.6667 
27097 306 4 16.1077 31.2724 14.5055 
27536 329 4 16.1626 31.3346 14.556 
27538 329 4 14.9665 30.5714 15.5494 
27101 306 4 14.9176 30.5432 15.5312 
27548 329 4 14.2134 29.9217 15.6535 
27111 306 4 14.1571 29.9064 15.6585 
27549 329 4 14.3384 30.3398 16.5924 
27110 306 4 14.3039 30.3379 16.5881 
27100 306 4 15.2484 31.0875 16.3021 
27539 329 4 15.2765 31.1075 16.3346 
27096 306 4 15.6781 31.18 15.4038 
27533 329 4 15.7196 31.2211 15.4453 
27099 306 4 16.0089 31.7243 16.1747 
27107 306 4 16.3397 32.2686 16.9456 
27534 329 4 16.0296 31.7572 16.2305 
27535 329 4 16.4727 31.8707 15.3412 
27541 329 4 16.9472 32.5903 16.2317 
27106 306 4 16.9382 32.5438 16.1469 
27098 306 4 16.4386 31.8167 15.2764 
27550 329 4 14.8334 30.994 17.2239 
27109 306 4 14.8188 30.995 17.2003 
27108 306 4 15.564 31.7017 17.3312 
27551 329 4 15.5659 31.709 17.3788 
27540 329 4 16.3396 32.2933 17.0156 
27150 308 4 11.6228 28.9988 29.0591 
27373 320 4 21.4439 5.1118 16.8516 
27374 320 4 20.66 5.65825 16.4531 
27206 311 4 17.922 1.25186 18.3386 
27187 310 4 17.9416 1.18207 18.3986 
27207 311 4 18.8834 1.38689 18.6981 
27188 310 4 18.9038 1.32142 18.7545 
27372 320 4 22.2817 5.05661 17.4573 
27365 320 4 21.5446 6.02853 17.2383 
27177 310 4 17.8263 1.48482 19.3447 
27197 311 4 18.6074 1.69571 19.8662 
27178 310 4 18.6287 1.68662 19.9064 
27196 311 4 17.8058 1.50969 19.2979 
27191 311 4 17.6897 1.76752 20.2571 
27172 310 4 17.711 1.78756 20.2908 
27189 310 4 19.5464 1.58568 19.522 
27208 311 4 19.525 1.62391 19.4753 
27209 311 4 19.6748 1.89941 20.462 
27190 310 4 19.6972 1.90403 20.4956 
27643 334 4 17.4911 3.76495 19.4038 
27695 337 4 18.2224 3.68998 20.1978 
27694 337 4 17.5313 3.75588 19.4297 
27642 334 4 18.1844 3.67547 20.1675 
27633 334 4 17.5719 4.68425 19.7891 
27687 337 4 17.5913 4.68128 19.804 
27628 334 4 17.6527 5.60355 20.1743 
27685 337 4 17.6513 5.60669 20.1782 
27632 334 4 18.194 4.85309 20.5537 
27688 337 4 18.2059 4.87217 20.5694 
27634 334 4 17.0307 5.43471 19.4097 
27686 337 4 17.0368 5.4158 19.4128 
27174 310 4 17.5957 2.09031 21.2369 
27193 311 4 17.5735 2.02535 21.2163 
27173 310 4 18.5134 1.98937 20.8525 
27192 311 4 18.4912 1.95354 20.8254 
27180 310 4 18.5044 2.37016 22.0319 
27199 311 4 18.4811 2.28003 22.0209 
27181 310 4 17.4805 2.39305 22.183 
27200 311 4 17.4574 2.28317 22.1755 
27179 310 4 19.3158 2.19117 21.4142 
27198 311 4 19.2927 2.13957 21.3937 
27641 334 4 18.7352 4.10262 20.933 
27696 337 4 18.7604 4.13766 20.9606 
27689 337 4 18.2659 5.79758 20.9437 
27631 334 4 18.2747 5.77238 20.9389 
27697 337 4 19.0013 4.97896 21.5138 
27639 334 4 18.8968 5.94122 21.7035 
27698 337 4 18.8804 5.98847 21.7092 
27640 334 4 18.9959 4.93195 21.4953 
27376 320 4 20.0235 7.5469 16.6208 
27375 320 4 20.1401 6.54956 16.3686 
27366 320 4 20.8927 6.74741 16.9968 
27367 320 4 20.9933 7.66414 17.3835 
27368 320 4 21.7459 7.86198 18.0117 
27362 320 4 21.6452 6.94526 17.625 
27364 320 4 22.2971 6.22637 17.8665 
27363 320 4 22.3978 7.1431 18.2531 
27377 320 4 20.3415 8.38302 17.142 
27378 320 4 21.0087 8.8339 17.7926 
27379 320 4 21.8465 8.77872 18.3983 
27691 337 4 17.0968 6.3412 19.787 
27630 334 4 17.7335 6.52285 20.5596 
27690 337 4 17.7114 6.53209 20.5525 
27629 334 4 17.1115 6.35401 19.7949 
27701 337 4 17.0803 7.52339 20.1587 
27636 334 4 17.121 7.53162 20.1811 
27700 337 4 17.7714 7.45749 20.9268 
27637 334 4 17.8143 7.44215 20.9448 
27638 334 4 18.4643 6.86002 21.502 
27699 337 4 18.4303 6.89567 21.4943 
27228 312 4 17.5697 12.8541 10.8546 
27266 314 4 17.5635 12.8285 10.8866 
27211 312 4 18.106 13.9191 11.1925 
27255 314 4 17.6221 13.6963 10.325 
27249 314 4 18.1047 13.9053 11.1756 
27217 312 4 17.618 13.7491 10.3363 
27256 314 4 17.9393 14.6761 10.2193 
27218 312 4 17.9279 14.7351 10.2769 
27212 312 4 18.5051 14.8186 11.3704 
27250 314 4 18.5088 14.8098 11.3119 
27257 314 4 18.4302 15.5054 10.5977 
27219 312 4 18.4162 15.5481 10.6922 
27258 314 4 18.9632 15.9619 11.3588 
27220 312 4 18.9522 15.9701 11.471 
27215 312 4 18.683 13.3596 12.7268 
27254 314 4 18.1833 13.2098 11.8898 
27216 312 4 18.195 13.1896 11.8707 
27226 312 4 18.2359 12.2081 12.6263 
27265 314 4 17.7793 12.3052 11.7535 
27227 312 4 17.7959 12.2901 11.6928 
27264 314 4 18.2116 12.2667 12.6934 
27253 314 4 18.666 13.4188 12.7403 
27248 314 4 18.5874 14.1143 12.0261 
27210 312 4 18.5941 14.0891 12.0486 
27213 312 4 18.9931 14.9886 12.2266 
27251 314 4 18.9914 15.0189 12.1624 
27252 314 4 19.07 14.3233 12.8766 
27214 312 4 19.0821 14.2591 12.9048 
27222 312 4 19.6184 15.3241 13.2427 
27260 314 4 19.6113 15.4002 13.1656 
27259 314 4 19.3955 15.9234 12.2987 
27221 312 4 19.3922 15.8881 12.4045 
27225 312 4 18.7719 12.6301 13.405 
27263 314 4 18.7446 12.7233 13.4546 
27224 312 4 19.2603 13.443 13.8204 
27262 314 4 19.2355 13.5526 13.8329 
27261 314 4 19.5527 14.5324 13.7272 
27223 312 4 19.5701 14.4291 13.7609 
27671 336 4 17.0491 16.1851 14.0073 
27824 344 4 17.3895 16.0164 14.8911 
27862 346 4 17.3783 16.0089 14.9343 
27672 336 4 17.3816 15.9921 14.9305 
27857 346 4 17.042 16.2081 14.0138 
27819 344 4 17.0741 16.2211 13.9645 
27674 336 4 17.0757 14.034 15.9661 
27832 344 4 17.0498 14.0511 15.9023 
27861 346 4 17.2186 15.1095 15.3413 
27667 336 4 17.2157 15.0972 15.3449 
27833 344 4 17.5247 14.9143 16.2205 
27673 336 4 17.5482 14.9043 16.268 
27871 346 4 17.5549 14.9104 16.2618 
27823 344 4 17.2092 15.119 15.2939 
27870 346 4 17.0862 14.0402 15.9536 
27873 346 4 17.8744 16.7091 15.4478 
27683 336 4 17.88 16.6941 15.4394 
27835 344 4 17.8853 16.7091 15.415 
27872 346 4 17.8434 15.8872 16.0766 
27834 344 4 17.8305 15.8871 16.0421 
27684 336 4 17.8426 15.878 16.0752 
27469 325 4 21.8757 18.281 2.4367 
27431 323 4 21.8754 18.3027 2.38 
27471 325 4 20.6887 18.8002 3.9604 
27433 323 4 20.6767 18.8028 3.90095 
27470 325 4 21.1038 18.6407 3.02547 
27432 323 4 21.0983 18.6536 2.96721 
27423 323 4 21.7617 18.277 3.61385 
27461 325 4 21.7697 18.2673 3.67143 
27462 325 4 21.5886 18.3054 4.65418 
27424 323 4 21.5743 18.3052 4.59576 
27434 323 4 20.7236 18.7101 4.93103 
27472 325 4 20.7417 18.717 4.99098 
27435 323 4 21.2264 18.4004 5.78144 
27473 325 4 21.2485 18.4131 5.84108 
27425 323 4 22.2377 17.9286 5.2424 
27463 325 4 22.2545 17.932 5.30014 
27474 325 4 22.0734 17.9702 6.2829 
27436 323 4 22.0503 17.9568 6.22431 
27681 336 4 17.2149 17.08 13.593 
27682 336 4 17.6502 17.1341 14.5308 
27874 346 4 17.6396 17.1557 14.5438 
27836 344 4 17.6744 17.1597 14.5071 
27863 346 4 17.2018 17.1074 13.6068 
27825 344 4 17.2544 17.1185 13.5617 
27543 329 4 17.1008 32.1023 14.2982 
27105 306 4 17.199 32.4535 15.1491 
27104 306 4 17.0523 32.022 14.2195 
27542 329 4 17.2258 32.5204 15.237 
27371 320 4 22.949 5.50749 18.1079 
27586 331 4 27.6985 11.4669 15.3165 
27370 320 4 23.2669 6.34361 18.6292 