ITEM: TIMESTEP
0
ITEM: NUMBER OF ATOMS
950
ITEM: BOX BOUNDS pp pp pp
0.0000000000000000e+00 3.4000000000000000e+01
0.0000000000000000e+00 3.4000000000000000e+01
0.0000000000000000e+00 3.4000000000000000e+01
ITEM: ATOMS id mol type x y z 
27035 302 4 4 3.26795 1.1 
27036 302 4 5 3 1.1 
27034 302 4 3.26795 4 1.1 
27025 302 4 4.5 4.13398 1.1 
27026 302 4 5.5 4.13398 1.1 
27033 302 4 3 5 1.1 
27024 302 4 4 5 1.1 
27020 302 4 5 5 1.1 
27111 306 4 4 3.26795 3.3 
27112 306 4 5 3 3.3 
27110 306 4 3.26795 4 3.3 
27101 306 4 4.5 4.13398 3.3 
27102 306 4 5.5 4.13398 3.3 
27109 306 4 3 5 3.3 
27100 306 4 4 5 3.3 
27096 306 4 5 5 3.3 
27396 321 4 4 3.26795 16.5 
27397 321 4 5 3 16.5 
27395 321 4 3.26795 4 16.5 
27386 321 4 4.5 4.13398 16.5 
27387 321 4 5.5 4.13398 16.5 
27394 321 4 3 5 16.5 
27385 321 4 4 5 16.5 
27381 321 4 5 5 16.5 
27415 322 4 4 3.26795 17.6 
27416 322 4 5 3 17.6 
27414 322 4 3.26795 4 17.6 
27405 322 4 4.5 4.13398 17.6 
27406 322 4 5.5 4.13398 17.6 
27413 322 4 3 5 17.6 
27404 322 4 4 5 17.6 
27400 322 4 5 5 17.6 
27491 326 4 4 3.26795 20.9 
27492 326 4 5 3 20.9 
27490 326 4 3.26795 4 20.9 
27481 326 4 4.5 4.13398 20.9 
27482 326 4 5.5 4.13398 20.9 
27489 326 4 3 5 20.9 
27480 326 4 4 5 20.9 
27476 326 4 5 5 20.9 
27529 328 4 4 3.26795 22 
27530 328 4 5 3 22 
27528 328 4 3.26795 4 22 
27519 328 4 4.5 4.13398 22 
27520 328 4 5.5 4.13398 22 
27527 328 4 3 5 22 
27518 328 4 4 5 22 
27514 328 4 5 5 22 
27567 330 4 4 3.26795 23.1 
27568 330 4 5 3 23.1 
27566 330 4 3.26795 4 23.1 
27557 330 4 4.5 4.13398 23.1 
27558 330 4 5.5 4.13398 23.1 
27565 330 4 3 5 23.1 
27556 330 4 4 5 23.1 
27552 330 4 5 5 23.1 
27795 342 4 4 3.26795 29.7 
27796 342 4 5 3 29.7 
27794 342 4 3.26795 4 29.7 
27785 342 4 4.5 4.13398 29.7 
27786 342 4 5.5 4.13398 29.7 
27793 342 4 3 5 29.7 
27784 342 4 4 5 29.7 
27780 342 4 5 5 29.7 
27928 349 4 4 3.26795 31.9 
27929 349 4 5 3 31.9 
27927 349 4 3.26795 4 31.9 
27918 349 4 4.5 4.13398 31.9 
27919 349 4 5.5 4.13398 31.9 
27926 349 4 3 5 31.9 
27917 349 4 4 5 31.9 
27913 349 4 5 5 31.9 
27032 302 4 3.26795 6 1.1 
27023 302 4 4.5 5.86602 1.1 
27022 302 4 5.5 5.86602 1.1 
27031 302 4 4 6.73205 1.1 
27030 302 4 5 7 1.1 
27108 306 4 3.26795 6 3.3 
27099 306 4 4.5 5.86602 3.3 
27098 306 4 5.5 5.86602 3.3 
27107 306 4 4 6.73205 3.3 
27106 306 4 5 7 3.3 
27393 321 4 3.26795 6 16.5 
27384 321 4 4.5 5.86602 16.5 
27383 321 4 5.5 5.86602 16.5 
27392 321 4 4 6.73205 16.5 
27391 321 4 5 7 16.5 
27412 322 4 3.26795 6 17.6 
27403 322 4 4.5 5.86602 17.6 
27402 322 4 5.5 5.86602 17.6 
27411 322 4 4 6.73205 17.6 
27410 322 4 5 7 17.6 
27488 326 4 3.26795 6 20.9 
27479 326 4 4.5 5.86602 20.9 
27478 326 4 5.5 5.86602 20.9 
27487 326 4 4 6.73205 20.9 
27486 326 4 5 7 20.9 
27526 328 4 3.26795 6 22 
27517 328 4 4.5 5.86602 22 
27516 328 4 5.5 5.86602 22 
27525 328 4 4 6.73205 22 
27524 328 4 5 7 22 
27564 330 4 3.26795 6 23.1 
27555 330 4 4.5 5.86602 23.1 
27554 330 4 5.5 5.86602 23.1 
27563 330 4 4 6.73205 23.1 
27562 330 4 5 7 23.1 
27792 342 4 3.26795 6 29.7 
27783 342 4 4.5 5.86602 29.7 
27782 342 4 5.5 5.86602 29.7 
27791 342 4 4 6.73205 29.7 
27790 342 4 5 7 29.7 
27925 349 4 3.26795 6 31.9 
27916 349 4 4.5 5.86602 31.9 
27915 349 4 5.5 5.86602 31.9 
27924 349 4 4 6.73205 31.9 
27923 349 4 5 7 31.9 
27017 301 4 5 13 0 
27015 301 4 3.26795 14 0 
27006 301 4 4.5 14.134 0 
27016 301 4 4 13.2679 0 
27007 301 4 5.5 14.134 0 
27014 301 4 3 15 0 
27005 301 4 4 15 0 
27001 301 4 5 15 0 
27013 301 4 3.26795 16 0 
27004 301 4 4.5 15.866 0 
27003 301 4 5.5 15.866 0 
27012 301 4 4 16.7321 0 
27055 303 4 5 13 1.1 
27053 303 4 3.26795 14 1.1 
27044 303 4 4.5 14.134 1.1 
27054 303 4 4 13.2679 1.1 
27045 303 4 5.5 14.134 1.1 
27052 303 4 3 15 1.1 
27043 303 4 4 15 1.1 
27039 303 4 5 15 1.1 
27051 303 4 3.26795 16 1.1 
27042 303 4 4.5 15.866 1.1 
27041 303 4 5.5 15.866 1.1 
27050 303 4 4 16.7321 1.1 
27093 305 4 5 13 2.2 
27091 305 4 3.26795 14 2.2 
27082 305 4 4.5 14.134 2.2 
27092 305 4 4 13.2679 2.2 
27083 305 4 5.5 14.134 2.2 
27090 305 4 3 15 2.2 
27081 305 4 4 15 2.2 
27077 305 4 5 15 2.2 
27089 305 4 3.26795 16 2.2 
27080 305 4 4.5 15.866 2.2 
27079 305 4 5.5 15.866 2.2 
27088 305 4 4 16.7321 2.2 
27169 309 4 5 13 5.5 
27167 309 4 3.26795 14 5.5 
27158 309 4 4.5 14.134 5.5 
27168 309 4 4 13.2679 5.5 
27159 309 4 5.5 14.134 5.5 
27166 309 4 3 15 5.5 
27157 309 4 4 15 5.5 
27153 309 4 5 15 5.5 
27165 309 4 3.26795 16 5.5 
27156 309 4 4.5 15.866 5.5 
27155 309 4 5.5 15.866 5.5 
27164 309 4 4 16.7321 5.5 
27340 318 4 5 13 14.3 
27338 318 4 3.26795 14 14.3 
27329 318 4 4.5 14.134 14.3 
27339 318 4 4 13.2679 14.3 
27330 318 4 5.5 14.134 14.3 
27337 318 4 3 15 14.3 
27328 318 4 4 15 14.3 
27324 318 4 5 15 14.3 
27336 318 4 3.26795 16 14.3 
27327 318 4 4.5 15.866 14.3 
27326 318 4 5.5 15.866 14.3 
27335 318 4 4 16.7321 14.3 
27606 332 4 5 13 24.2 
27604 332 4 3.26795 14 24.2 
27595 332 4 4.5 14.134 24.2 
27605 332 4 4 13.2679 24.2 
27596 332 4 5.5 14.134 24.2 
27603 332 4 3 15 24.2 
27594 332 4 4 15 24.2 
27590 332 4 5 15 24.2 
27602 332 4 3.26795 16 24.2 
27593 332 4 4.5 15.866 24.2 
27592 332 4 5.5 15.866 24.2 
27601 332 4 4 16.7321 24.2 
27891 347 4 5 13 30.8 
27889 347 4 3.26795 14 30.8 
27880 347 4 4.5 14.134 30.8 
27890 347 4 4 13.2679 30.8 
27881 347 4 5.5 14.134 30.8 
27888 347 4 3 15 30.8 
27879 347 4 4 15 30.8 
27875 347 4 5 15 30.8 
27887 347 4 3.26795 16 30.8 
27878 347 4 4.5 15.866 30.8 
27877 347 4 5.5 15.866 30.8 
27886 347 4 4 16.7321 30.8 
27011 301 4 5 17 0 
27049 303 4 5 17 1.1 
27087 305 4 5 17 2.2 
27163 309 4 5 17 5.5 
27334 318 4 5 17 14.3 
27600 332 4 5 17 24.2 
27885 347 4 5 17 30.8 
27073 304 4 4 23.2679 1.1 
27074 304 4 5 23 1.1 
27072 304 4 3.26795 24 1.1 
27063 304 4 4.5 24.134 1.1 
27064 304 4 5.5 24.134 1.1 
27071 304 4 3 25 1.1 
27062 304 4 4 25 1.1 
27058 304 4 5 25 1.1 
27070 304 4 3.26795 26 1.1 
27061 304 4 4.5 25.866 1.1 
27060 304 4 5.5 25.866 1.1 
27069 304 4 4 26.7321 1.1 
27068 304 4 5 27 1.1 
27453 324 4 4 23.2679 17.6 
27454 324 4 5 23 17.6 
27452 324 4 3.26795 24 17.6 
27443 324 4 4.5 24.134 17.6 
27444 324 4 5.5 24.134 17.6 
27451 324 4 3 25 17.6 
27442 324 4 4 25 17.6 
27438 324 4 5 25 17.6 
27450 324 4 3.26795 26 17.6 
27441 324 4 4.5 25.866 17.6 
27440 324 4 5.5 25.866 17.6 
27449 324 4 4 26.7321 17.6 
27448 324 4 5 27 17.6 
27586 331 4 4 23.2679 23.1 
27587 331 4 5 23 23.1 
27585 331 4 3.26795 24 23.1 
27576 331 4 4.5 24.134 23.1 
27577 331 4 5.5 24.134 23.1 
27584 331 4 3 25 23.1 
27575 331 4 4 25 23.1 
27571 331 4 5 25 23.1 
27583 331 4 3.26795 26 23.1 
27574 331 4 4.5 25.866 23.1 
27573 331 4 5.5 25.866 23.1 
27582 331 4 4 26.7321 23.1 
27581 331 4 5 27 23.1 
27719 338 4 4 23.2679 27.5 
27720 338 4 5 23 27.5 
27718 338 4 3.26795 24 27.5 
27709 338 4 4.5 24.134 27.5 
27710 338 4 5.5 24.134 27.5 
27717 338 4 3 25 27.5 
27708 338 4 4 25 27.5 
27704 338 4 5 25 27.5 
27716 338 4 3.26795 26 27.5 
27707 338 4 4.5 25.866 27.5 
27706 338 4 5.5 25.866 27.5 
27715 338 4 4 26.7321 27.5 
27714 338 4 5 27 27.5 
27776 341 4 4 23.2679 28.6 
27777 341 4 5 23 28.6 
27775 341 4 3.26795 24 28.6 
27766 341 4 4.5 24.134 28.6 
27767 341 4 5.5 24.134 28.6 
27774 341 4 3 25 28.6 
27765 341 4 4 25 28.6 
27761 341 4 5 25 28.6 
27773 341 4 3.26795 26 28.6 
27764 341 4 4.5 25.866 28.6 
27763 341 4 5.5 25.866 28.6 
27772 341 4 4 26.7321 28.6 
27771 341 4 5 27 28.6 
27037 302 4 6 3.26795 1.1 
27038 302 4 6.73205 4 1.1 
27021 302 4 6 5 1.1 
27027 302 4 7 5 1.1 
27113 306 4 6 3.26795 3.3 
27114 306 4 6.73205 4 3.3 
27097 306 4 6 5 3.3 
27103 306 4 7 5 3.3 
27398 321 4 6 3.26795 16.5 
27399 321 4 6.73205 4 16.5 
27382 321 4 6 5 16.5 
27388 321 4 7 5 16.5 
27417 322 4 6 3.26795 17.6 
27418 322 4 6.73205 4 17.6 
27401 322 4 6 5 17.6 
27407 322 4 7 5 17.6 
27493 326 4 6 3.26795 20.9 
27494 326 4 6.73205 4 20.9 
27477 326 4 6 5 20.9 
27483 326 4 7 5 20.9 
27531 328 4 6 3.26795 22 
27532 328 4 6.73205 4 22 
27515 328 4 6 5 22 
27521 328 4 7 5 22 
27569 330 4 6 3.26795 23.1 
27570 330 4 6.73205 4 23.1 
27553 330 4 6 5 23.1 
27559 330 4 7 5 23.1 
27797 342 4 6 3.26795 29.7 
27798 342 4 6.73205 4 29.7 
27781 342 4 6 5 29.7 
27787 342 4 7 5 29.7 
27930 349 4 6 3.26795 31.9 
27931 349 4 6.73205 4 31.9 
27914 349 4 6 5 31.9 
27920 349 4 7 5 31.9 
27028 302 4 6.73205 6 1.1 
27029 302 4 6 6.73205 1.1 
27104 306 4 6.73205 6 3.3 
27105 306 4 6 6.73205 3.3 
27389 321 4 6.73205 6 16.5 
27390 321 4 6 6.73205 16.5 
27408 322 4 6.73205 6 17.6 
27409 322 4 6 6.73205 17.6 
27484 326 4 6.73205 6 20.9 
27485 326 4 6 6.73205 20.9 
27522 328 4 6.73205 6 22 
27523 328 4 6 6.73205 22 
27560 330 4 6.73205 6 23.1 
27561 330 4 6 6.73205 23.1 
27788 342 4 6.73205 6 29.7 
27789 342 4 6 6.73205 29.7 
27921 349 4 6.73205 6 31.9 
27922 349 4 6 6.73205 31.9 
27018 301 4 6 13.2679 0 
27019 301 4 6.73205 14 0 
27002 301 4 6 15 0 
27008 301 4 7 15 0 
27009 301 4 6.73205 16 0 
27010 301 4 6 16.7321 0 
27056 303 4 6 13.2679 1.1 
27057 303 4 6.73205 14 1.1 
27040 303 4 6 15 1.1 
27046 303 4 7 15 1.1 
27047 303 4 6.73205 16 1.1 
27048 303 4 6 16.7321 1.1 
27094 305 4 6 13.2679 2.2 
27095 305 4 6.73205 14 2.2 
27078 305 4 6 15 2.2 
27084 305 4 7 15 2.2 
27085 305 4 6.73205 16 2.2 
27086 305 4 6 16.7321 2.2 
27170 309 4 6 13.2679 5.5 
27171 309 4 6.73205 14 5.5 
27154 309 4 6 15 5.5 
27160 309 4 7 15 5.5 
27161 309 4 6.73205 16 5.5 
27162 309 4 6 16.7321 5.5 
27341 318 4 6 13.2679 14.3 
27342 318 4 6.73205 14 14.3 
27325 318 4 6 15 14.3 
27331 318 4 7 15 14.3 
27332 318 4 6.73205 16 14.3 
27333 318 4 6 16.7321 14.3 
27607 332 4 6 13.2679 24.2 
27608 332 4 6.73205 14 24.2 
27591 332 4 6 15 24.2 
27597 332 4 7 15 24.2 
27598 332 4 6.73205 16 24.2 
27599 332 4 6 16.7321 24.2 
27892 347 4 6 13.2679 30.8 
27893 347 4 6.73205 14 30.8 
27876 347 4 6 15 30.8 
27882 347 4 7 15 30.8 
27883 347 4 6.73205 16 30.8 
27884 347 4 6 16.7321 30.8 
27075 304 4 6 23.2679 1.1 
27076 304 4 6.73205 24 1.1 
27059 304 4 6 25 1.1 
27065 304 4 7 25 1.1 
27066 304 4 6.73205 26 1.1 
27067 304 4 6 26.7321 1.1 
27455 324 4 6 23.2679 17.6 
27456 324 4 6.73205 24 17.6 
27439 324 4 6 25 17.6 
27445 324 4 7 25 17.6 
27446 324 4 6.73205 26 17.6 
27447 324 4 6 26.7321 17.6 
27588 331 4 6 23.2679 23.1 
27589 331 4 6.73205 24 23.1 
27572 331 4 6 25 23.1 
27578 331 4 7 25 23.1 
27579 331 4 6.73205 26 23.1 
27580 331 4 6 26.7321 23.1 
27721 338 4 6 23.2679 27.5 
27722 338 4 6.73205 24 27.5 
27705 338 4 6 25 27.5 
27711 338 4 7 25 27.5 
27712 338 4 6.73205 26 27.5 
27713 338 4 6 26.7321 27.5 
27778 341 4 6 23.2679 28.6 
27779 341 4 6.73205 24 28.6 
27762 341 4 6 25 28.6 
27768 341 4 7 25 28.6 
27769 341 4 6.73205 26 28.6 
27770 341 4 6 26.7321 28.6 
27149 308 4 14 3.26795 4.4 
27150 308 4 15 3 4.4 
27151 308 4 16 3.26795 4.4 
27148 308 4 13.2679 4 4.4 
27139 308 4 14.5 4.13398 4.4 
27140 308 4 15.5 4.13398 4.4 
27152 308 4 16.7321 4 4.4 
27147 308 4 13 5 4.4 
27138 308 4 14 5 4.4 
27134 308 4 15 5 4.4 
27135 308 4 16 5 4.4 
27244 313 4 14 3.26795 7.7 
27245 313 4 15 3 7.7 
27246 313 4 16 3.26795 7.7 
27243 313 4 13.2679 4 7.7 
27234 313 4 14.5 4.13398 7.7 
27235 313 4 15.5 4.13398 7.7 
27247 313 4 16.7321 4 7.7 
27242 313 4 13 5 7.7 
27233 313 4 14 5 7.7 
27229 313 4 15 5 7.7 
27230 313 4 16 5 7.7 
27434 323 4 14 3.26795 17.6 
27435 323 4 15 3 17.6 
27436 323 4 16 3.26795 17.6 
27433 323 4 13.2679 4 17.6 
27424 323 4 14.5 4.13398 17.6 
27425 323 4 15.5 4.13398 17.6 
27437 323 4 16.7321 4 17.6 
27432 323 4 13 5 17.6 
27423 323 4 14 5 17.6 
27419 323 4 15 5 17.6 
27420 323 4 16 5 17.6 
27472 325 4 14 3.26795 18.7 
27473 325 4 15 3 18.7 
27474 325 4 16 3.26795 18.7 
27471 325 4 13.2679 4 18.7 
27462 325 4 14.5 4.13398 18.7 
27463 325 4 15.5 4.13398 18.7 
27475 325 4 16.7321 4 18.7 
27470 325 4 13 5 18.7 
27461 325 4 14 5 18.7 
27457 325 4 15 5 18.7 
27458 325 4 16 5 18.7 
27738 339 4 14 3.26795 28.6 
27739 339 4 15 3 28.6 
27740 339 4 16 3.26795 28.6 
27737 339 4 13.2679 4 28.6 
27728 339 4 14.5 4.13398 28.6 
27729 339 4 15.5 4.13398 28.6 
27741 339 4 16.7321 4 28.6 
27736 339 4 13 5 28.6 
27727 339 4 14 5 28.6 
27723 339 4 15 5 28.6 
27724 339 4 16 5 28.6 
27814 343 4 14 3.26795 29.7 
27815 343 4 15 3 29.7 
27816 343 4 16 3.26795 29.7 
27813 343 4 13.2679 4 29.7 
27804 343 4 14.5 4.13398 29.7 
27805 343 4 15.5 4.13398 29.7 
27817 343 4 16.7321 4 29.7 
27812 343 4 13 5 29.7 
27803 343 4 14 5 29.7 
27799 343 4 15 5 29.7 
27800 343 4 16 5 29.7 
27852 345 4 14 3.26795 30.8 
27853 345 4 15 3 30.8 
27854 345 4 16 3.26795 30.8 
27851 345 4 13.2679 4 30.8 
27842 345 4 14.5 4.13398 30.8 
27843 345 4 15.5 4.13398 30.8 
27855 345 4 16.7321 4 30.8 
27850 345 4 13 5 30.8 
27841 345 4 14 5 30.8 
27837 345 4 15 5 30.8 
27838 345 4 16 5 30.8 
27947 350 4 14 3.26795 31.9 
27948 350 4 15 3 31.9 
27949 350 4 16 3.26795 31.9 
27946 350 4 13.2679 4 31.9 
27937 350 4 14.5 4.13398 31.9 
27938 350 4 15.5 4.13398 31.9 
27950 350 4 16.7321 4 31.9 
27945 350 4 13 5 31.9 
27936 350 4 14 5 31.9 
27932 350 4 15 5 31.9 
27933 350 4 16 5 31.9 
27146 308 4 13.2679 6 4.4 
27137 308 4 14.5 5.86602 4.4 
27136 308 4 15.5 5.86602 4.4 
27142 308 4 16.7321 6 4.4 
27145 308 4 14 6.73205 4.4 
27144 308 4 15 7 4.4 
27143 308 4 16 6.73205 4.4 
27241 313 4 13.2679 6 7.7 
27232 313 4 14.5 5.86602 7.7 
27231 313 4 15.5 5.86602 7.7 
27237 313 4 16.7321 6 7.7 
27240 313 4 14 6.73205 7.7 
27239 313 4 15 7 7.7 
27238 313 4 16 6.73205 7.7 
27431 323 4 13.2679 6 17.6 
27422 323 4 14.5 5.86602 17.6 
27421 323 4 15.5 5.86602 17.6 
27427 323 4 16.7321 6 17.6 
27430 323 4 14 6.73205 17.6 
27429 323 4 15 7 17.6 
27428 323 4 16 6.73205 17.6 
27469 325 4 13.2679 6 18.7 
27460 325 4 14.5 5.86602 18.7 
27459 325 4 15.5 5.86602 18.7 
27465 325 4 16.7321 6 18.7 
27468 325 4 14 6.73205 18.7 
27467 325 4 15 7 18.7 
27466 325 4 16 6.73205 18.7 
27735 339 4 13.2679 6 28.6 
27726 339 4 14.5 5.86602 28.6 
27725 339 4 15.5 5.86602 28.6 
27731 339 4 16.7321 6 28.6 
27734 339 4 14 6.73205 28.6 
27733 339 4 15 7 28.6 
27732 339 4 16 6.73205 28.6 
27811 343 4 13.2679 6 29.7 
27802 343 4 14.5 5.86602 29.7 
27801 343 4 15.5 5.86602 29.7 
27807 343 4 16.7321 6 29.7 
27810 343 4 14 6.73205 29.7 
27809 343 4 15 7 29.7 
27808 343 4 16 6.73205 29.7 
27849 345 4 13.2679 6 30.8 
27840 345 4 14.5 5.86602 30.8 
27839 345 4 15.5 5.86602 30.8 
27845 345 4 16.7321 6 30.8 
27848 345 4 14 6.73205 30.8 
27847 345 4 15 7 30.8 
27846 345 4 16 6.73205 30.8 
27944 350 4 13.2679 6 31.9 
27935 350 4 14.5 5.86602 31.9 
27934 350 4 15.5 5.86602 31.9 
27940 350 4 16.7321 6 31.9 
27943 350 4 14 6.73205 31.9 
27942 350 4 15 7 31.9 
27941 350 4 16 6.73205 31.9 
27131 307 4 15 13 3.3 
27129 307 4 13.2679 14 3.3 
27130 307 4 14 13.2679 3.3 
27120 307 4 14.5 14.134 3.3 
27121 307 4 15.5 14.134 3.3 
27132 307 4 16 13.2679 3.3 
27133 307 4 16.7321 14 3.3 
27128 307 4 13 15 3.3 
27119 307 4 14 15 3.3 
27115 307 4 15 15 3.3 
27116 307 4 16 15 3.3 
27127 307 4 13.2679 16 3.3 
27118 307 4 14.5 15.866 3.3 
27117 307 4 15.5 15.866 3.3 
27123 307 4 16.7321 16 3.3 
27126 307 4 14 16.7321 3.3 
27124 307 4 16 16.7321 3.3 
27644 334 4 15 13 25.3 
27642 334 4 13.2679 14 25.3 
27643 334 4 14 13.2679 25.3 
27633 334 4 14.5 14.134 25.3 
27634 334 4 15.5 14.134 25.3 
27645 334 4 16 13.2679 25.3 
27646 334 4 16.7321 14 25.3 
27641 334 4 13 15 25.3 
27632 334 4 14 15 25.3 
27628 334 4 15 15 25.3 
27629 334 4 16 15 25.3 
27640 334 4 13.2679 16 25.3 
27631 334 4 14.5 15.866 25.3 
27630 334 4 15.5 15.866 25.3 
27636 334 4 16.7321 16 25.3 
27639 334 4 14 16.7321 25.3 
27637 334 4 16 16.7321 25.3 
27910 348 4 15 13 30.8 
27908 348 4 13.2679 14 30.8 
27909 348 4 14 13.2679 30.8 
27899 348 4 14.5 14.134 30.8 
27900 348 4 15.5 14.134 30.8 
27911 348 4 16 13.2679 30.8 
27912 348 4 16.7321 14 30.8 
27907 348 4 13 15 30.8 
27898 348 4 14 15 30.8 
27894 348 4 15 15 30.8 
27895 348 4 16 15 30.8 
27906 348 4 13.2679 16 30.8 
27897 348 4 14.5 15.866 30.8 
27896 348 4 15.5 15.866 30.8 
27902 348 4 16.7321 16 30.8 
27905 348 4 14 16.7321 30.8 
27903 348 4 16 16.7321 30.8 
27125 307 4 15 17 3.3 
27638 334 4 15 17 25.3 
27904 348 4 15 17 30.8 
27225 312 4 14 23.2679 6.6 
27226 312 4 15 23 6.6 
27227 312 4 16 23.2679 6.6 
27224 312 4 13.2679 24 6.6 
27215 312 4 14.5 24.134 6.6 
27216 312 4 15.5 24.134 6.6 
27228 312 4 16.7321 24 6.6 
27223 312 4 13 25 6.6 
27214 312 4 14 25 6.6 
27210 312 4 15 25 6.6 
27211 312 4 16 25 6.6 
27222 312 4 13.2679 26 6.6 
27213 312 4 14.5 25.866 6.6 
27212 312 4 15.5 25.866 6.6 
27218 312 4 16.7321 26 6.6 
27221 312 4 14 26.7321 6.6 
27220 312 4 15 27 6.6 
27219 312 4 16 26.7321 6.6 
27263 314 4 14 23.2679 7.7 
27264 314 4 15 23 7.7 
27265 314 4 16 23.2679 7.7 
27262 314 4 13.2679 24 7.7 
27253 314 4 14.5 24.134 7.7 
27254 314 4 15.5 24.134 7.7 
27266 314 4 16.7321 24 7.7 
27261 314 4 13 25 7.7 
27252 314 4 14 25 7.7 
27248 314 4 15 25 7.7 
27249 314 4 16 25 7.7 
27260 314 4 13.2679 26 7.7 
27251 314 4 14.5 25.866 7.7 
27250 314 4 15.5 25.866 7.7 
27256 314 4 16.7321 26 7.7 
27259 314 4 14 26.7321 7.7 
27258 314 4 15 27 7.7 
27257 314 4 16 26.7321 7.7 
27377 320 4 14 23.2679 15.4 
27378 320 4 15 23 15.4 
27379 320 4 16 23.2679 15.4 
27376 320 4 13.2679 24 15.4 
27367 320 4 14.5 24.134 15.4 
27368 320 4 15.5 24.134 15.4 
27380 320 4 16.7321 24 15.4 
27375 320 4 13 25 15.4 
27366 320 4 14 25 15.4 
27362 320 4 15 25 15.4 
27363 320 4 16 25 15.4 
27374 320 4 13.2679 26 15.4 
27365 320 4 14.5 25.866 15.4 
27364 320 4 15.5 25.866 15.4 
27370 320 4 16.7321 26 15.4 
27373 320 4 14 26.7321 15.4 
27372 320 4 15 27 15.4 
27371 320 4 16 26.7321 15.4 
27700 337 4 14 23.2679 26.4 
27701 337 4 15 23 26.4 
27702 337 4 16 23.2679 26.4 
27699 337 4 13.2679 24 26.4 
27690 337 4 14.5 24.134 26.4 
27691 337 4 15.5 24.134 26.4 
27703 337 4 16.7321 24 26.4 
27698 337 4 13 25 26.4 
27689 337 4 14 25 26.4 
27685 337 4 15 25 26.4 
27686 337 4 16 25 26.4 
27697 337 4 13.2679 26 26.4 
27688 337 4 14.5 25.866 26.4 
27687 337 4 15.5 25.866 26.4 
27693 337 4 16.7321 26 26.4 
27696 337 4 14 26.7321 26.4 
27695 337 4 15 27 26.4 
27694 337 4 16 26.7321 26.4 
27141 308 4 17 5 4.4 
27236 313 4 17 5 7.7 
27426 323 4 17 5 17.6 
27464 325 4 17 5 18.7 
27730 339 4 17 5 28.6 
27806 343 4 17 5 29.7 
27844 345 4 17 5 30.8 
27939 350 4 17 5 31.9 
27122 307 4 17 15 3.3 
27635 334 4 17 15 25.3 
27901 348 4 17 15 30.8 
27217 312 4 17 25 6.6 
27255 314 4 17 25 7.7 
27369 320 4 17 25 15.4 
27692 337 4 17 25 26.4 
27510 327 4 24 3.26795 20.9 
27511 327 4 25 3 20.9 
27512 327 4 26 3.26795 20.9 
27509 327 4 23.2679 4 20.9 
27500 327 4 24.5 4.13398 20.9 
27501 327 4 25.5 4.13398 20.9 
27513 327 4 26.7321 4 20.9 
27508 327 4 23 5 20.9 
27499 327 4 24 5 20.9 
27495 327 4 25 5 20.9 
27496 327 4 26 5 20.9 
27502 327 4 27 5 20.9 
27548 329 4 24 3.26795 22 
27549 329 4 25 3 22 
27550 329 4 26 3.26795 22 
27547 329 4 23.2679 4 22 
27538 329 4 24.5 4.13398 22 
27539 329 4 25.5 4.13398 22 
27551 329 4 26.7321 4 22 
27546 329 4 23 5 22 
27537 329 4 24 5 22 
27533 329 4 25 5 22 
27534 329 4 26 5 22 
27540 329 4 27 5 22 
27681 336 4 24 3.26795 26.4 
27682 336 4 25 3 26.4 
27683 336 4 26 3.26795 26.4 
27680 336 4 23.2679 4 26.4 
27671 336 4 24.5 4.13398 26.4 
27672 336 4 25.5 4.13398 26.4 
27684 336 4 26.7321 4 26.4 
27679 336 4 23 5 26.4 
27670 336 4 24 5 26.4 
27666 336 4 25 5 26.4 
27667 336 4 26 5 26.4 
27673 336 4 27 5 26.4 
27833 344 4 24 3.26795 29.7 
27834 344 4 25 3 29.7 
27835 344 4 26 3.26795 29.7 
27832 344 4 23.2679 4 29.7 
27823 344 4 24.5 4.13398 29.7 
27824 344 4 25.5 4.13398 29.7 
27836 344 4 26.7321 4 29.7 
27831 344 4 23 5 29.7 
27822 344 4 24 5 29.7 
27818 344 4 25 5 29.7 
27819 344 4 26 5 29.7 
27825 344 4 27 5 29.7 
27871 346 4 24 3.26795 30.8 
27872 346 4 25 3 30.8 
27873 346 4 26 3.26795 30.8 
27870 346 4 23.2679 4 30.8 
27861 346 4 24.5 4.13398 30.8 
27862 346 4 25.5 4.13398 30.8 
27874 346 4 26.7321 4 30.8 
27869 346 4 23 5 30.8 
27860 346 4 24 5 30.8 
27856 346 4 25 5 30.8 
27857 346 4 26 5 30.8 
27863 346 4 27 5 30.8 
27507 327 4 23.2679 6 20.9 
27498 327 4 24.5 5.86602 20.9 
27497 327 4 25.5 5.86602 20.9 
27503 327 4 26.7321 6 20.9 
27506 327 4 24 6.73205 20.9 
27505 327 4 25 7 20.9 
27504 327 4 26 6.73205 20.9 
27545 329 4 23.2679 6 22 
27536 329 4 24.5 5.86602 22 
27535 329 4 25.5 5.86602 22 
27541 329 4 26.7321 6 22 
27544 329 4 24 6.73205 22 
27543 329 4 25 7 22 
27542 329 4 26 6.73205 22 
27678 336 4 23.2679 6 26.4 
27669 336 4 24.5 5.86602 26.4 
27668 336 4 25.5 5.86602 26.4 
27674 336 4 26.7321 6 26.4 
27677 336 4 24 6.73205 26.4 
27676 336 4 25 7 26.4 
27675 336 4 26 6.73205 26.4 
27830 344 4 23.2679 6 29.7 
27821 344 4 24.5 5.86602 29.7 
27820 344 4 25.5 5.86602 29.7 
27826 344 4 26.7321 6 29.7 
27829 344 4 24 6.73205 29.7 
27828 344 4 25 7 29.7 
27827 344 4 26 6.73205 29.7 
27868 346 4 23.2679 6 30.8 
27859 346 4 24.5 5.86602 30.8 
27858 346 4 25.5 5.86602 30.8 
27864 346 4 26.7321 6 30.8 
27867 346 4 24 6.73205 30.8 
27866 346 4 25 7 30.8 
27865 346 4 26 6.73205 30.8 
27188 310 4 25 13 5.5 
27186 310 4 23.2679 14 5.5 
27177 310 4 24.5 14.134 5.5 
27187 310 4 24 13.2679 5.5 
27178 310 4 25.5 14.134 5.5 
27189 310 4 26 13.2679 5.5 
27190 310 4 26.7321 14 5.5 
27185 310 4 23 15 5.5 
27176 310 4 24 15 5.5 
27172 310 4 25 15 5.5 
27173 310 4 26 15 5.5 
27179 310 4 27 15 5.5 
27184 310 4 23.2679 16 5.5 
27175 310 4 24.5 15.866 5.5 
27174 310 4 25.5 15.866 5.5 
27180 310 4 26.7321 16 5.5 
27183 310 4 24 16.7321 5.5 
27181 310 4 26 16.7321 5.5 
27207 311 4 25 13 6.6 
27205 311 4 23.2679 14 6.6 
27196 311 4 24.5 14.134 6.6 
27206 311 4 24 13.2679 6.6 
27197 311 4 25.5 14.134 6.6 
27208 311 4 26 13.2679 6.6 
27209 311 4 26.7321 14 6.6 
27204 311 4 23 15 6.6 
27195 311 4 24 15 6.6 
27191 311 4 25 15 6.6 
27192 311 4 26 15 6.6 
27198 311 4 27 15 6.6 
27203 311 4 23.2679 16 6.6 
27194 311 4 24.5 15.866 6.6 
27193 311 4 25.5 15.866 6.6 
27199 311 4 26.7321 16 6.6 
27202 311 4 24 16.7321 6.6 
27200 311 4 26 16.7321 6.6 
27321 317 4 25 13 13.2 
27319 317 4 23.2679 14 13.2 
27310 317 4 24.5 14.134 13.2 
27320 317 4 24 13.2679 13.2 
27311 317 4 25.5 14.134 13.2 
27322 317 4 26 13.2679 13.2 
27323 317 4 26.7321 14 13.2 
27318 317 4 23 15 13.2 
27309 317 4 24 15 13.2 
27305 317 4 25 15 13.2 
27306 317 4 26 15 13.2 
27312 317 4 27 15 13.2 
27317 317 4 23.2679 16 13.2 
27308 317 4 24.5 15.866 13.2 
27307 317 4 25.5 15.866 13.2 
27313 317 4 26.7321 16 13.2 
27316 317 4 24 16.7321 13.2 
27314 317 4 26 16.7321 13.2 
27359 319 4 25 13 15.4 
27357 319 4 23.2679 14 15.4 
27348 319 4 24.5 14.134 15.4 
27358 319 4 24 13.2679 15.4 
27349 319 4 25.5 14.134 15.4 
27360 319 4 26 13.2679 15.4 
27361 319 4 26.7321 14 15.4 
27356 319 4 23 15 15.4 
27347 319 4 24 15 15.4 
27343 319 4 25 15 15.4 
27344 319 4 26 15 15.4 
27350 319 4 27 15 15.4 
27355 319 4 23.2679 16 15.4 
27346 319 4 24.5 15.866 15.4 
27345 319 4 25.5 15.866 15.4 
27351 319 4 26.7321 16 15.4 
27354 319 4 24 16.7321 15.4 
27352 319 4 26 16.7321 15.4 
27758 340 4 25 13 28.6 
27756 340 4 23.2679 14 28.6 
27747 340 4 24.5 14.134 28.6 
27757 340 4 24 13.2679 28.6 
27748 340 4 25.5 14.134 28.6 
27759 340 4 26 13.2679 28.6 
27760 340 4 26.7321 14 28.6 
27755 340 4 23 15 28.6 
27746 340 4 24 15 28.6 
27742 340 4 25 15 28.6 
27743 340 4 26 15 28.6 
27749 340 4 27 15 28.6 
27754 340 4 23.2679 16 28.6 
27745 340 4 24.5 15.866 28.6 
27744 340 4 25.5 15.866 28.6 
27750 340 4 26.7321 16 28.6 
27753 340 4 24 16.7321 28.6 
27751 340 4 26 16.7321 28.6 
27182 310 4 25 17 5.5 
27201 311 4 25 17 6.6 
27315 317 4 25 17 13.2 
27353 319 4 25 17 15.4 
27752 340 4 25 17 28.6 
27282 315 4 24 23.2679 11 
27283 315 4 25 23 11 
27284 315 4 26 23.2679 11 
27281 315 4 23.2679 24 11 
27272 315 4 24.5 24.134 11 
27273 315 4 25.5 24.134 11 
27285 315 4 26.7321 24 11 
27280 315 4 23 25 11 
27271 315 4 24 25 11 
27267 315 4 25 25 11 
27268 315 4 26 25 11 
27274 315 4 27 25 11 
27279 315 4 23.2679 26 11 
27270 315 4 24.5 25.866 11 
27269 315 4 25.5 25.866 11 
27275 315 4 26.7321 26 11 
27278 315 4 24 26.7321 11 
27277 315 4 25 27 11 
27276 315 4 26 26.7321 11 
27301 316 4 24 23.2679 12.1 
27302 316 4 25 23 12.1 
27303 316 4 26 23.2679 12.1 
27300 316 4 23.2679 24 12.1 
27291 316 4 24.5 24.134 12.1 
27292 316 4 25.5 24.134 12.1 
27304 316 4 26.7321 24 12.1 
27299 316 4 23 25 12.1 
27290 316 4 24 25 12.1 
27286 316 4 25 25 12.1 
27287 316 4 26 25 12.1 
27293 316 4 27 25 12.1 
27298 316 4 23.2679 26 12.1 
27289 316 4 24.5 25.866 12.1 
27288 316 4 25.5 25.866 12.1 
27294 316 4 26.7321 26 12.1 
27297 316 4 24 26.7321 12.1 
27296 316 4 25 27 12.1 
27295 316 4 26 26.7321 12.1 
27624 333 4 24 23.2679 24.2 
27625 333 4 25 23 24.2 
27626 333 4 26 23.2679 24.2 
27623 333 4 23.2679 24 24.2 
27614 333 4 24.5 24.134 24.2 
27615 333 4 25.5 24.134 24.2 
27627 333 4 26.7321 24 24.2 
27622 333 4 23 25 24.2 
27613 333 4 24 25 24.2 
27609 333 4 25 25 24.2 
27610 333 4 26 25 24.2 
27616 333 4 27 25 24.2 
27621 333 4 23.2679 26 24.2 
27612 333 4 24.5 25.866 24.2 
27611 333 4 25.5 25.866 24.2 
27617 333 4 26.7321 26 24.2 
27620 333 4 24 26.7321 24.2 
27619 333 4 25 27 24.2 
27618 333 4 26 26.7321 24.2 
27662 335 4 24 23.2679 25.3 
27663 335 4 25 23 25.3 
27664 335 4 26 23.2679 25.3 
27661 335 4 23.2679 24 25.3 
27652 335 4 24.5 24.134 25.3 
27653 335 4 25.5 24.134 25.3 
27665 335 4 26.7321 24 25.3 
27660 335 4 23 25 25.3 
27651 335 4 24 25 25.3 
27647 335 4 25 25 25.3 
27648 335 4 26 25 25.3 
27654 335 4 27 25 25.3 
27659 335 4 23.2679 26 25.3 
27650 335 4 24.5 25.866 25.3 
27649 335 4 25.5 25.866 25.3 
27655 335 4 26.7321 26 25.3 
27658 335 4 24 26.7321 25.3 
27657 335 4 25 27 25.3 
27656 335 4 26 26.7321 25.3 
ITEM: TIMESTEP
100000
ITEM: NUMBER OF ATOMS
950
ITEM: BOX BOUNDS pp pp pp
0.0000000000000000e+00 3.4000000000000000e+01
0.0000000000000000e+00 3.4000000000000000e+01
0.0000000000000000e+00 3.4000000000000000e+01
ITEM: ATOMS id mol type x y z 
27412 322 4 3.13003 2.75013 17.0913 
27397 321 4 3.06903 2.73089 17.18 
27494 326 4 3.16884 2.74062 17.1362 
27568 330 4 3.1235 2.67658 17.1574 
27521 328 4 3.12417 2.66928 17.14 
27411 322 4 4.13332 2.75991 17.3464 
27483 326 4 4.16838 2.77389 17.4038 
27396 321 4 4.0717 2.73745 17.4377 
27569 330 4 4.12621 2.70364 17.4136 
27522 328 4 4.12304 2.70607 17.4096 
27399 321 4 1.49609 3.89648 17.589 
27414 322 4 1.54389 3.88007 17.5467 
27398 321 4 2.12629 3.15512 17.2354 
27532 328 4 2.16901 3.06644 17.1818 
27493 326 4 2.21226 3.1326 17.1919 
27413 322 4 2.18223 3.16014 17.1646 
27567 330 4 2.17322 3.08394 17.2105 
27557 330 4 2.7462 3.69089 17.7613 
27387 321 4 2.7095 3.74689 17.7919 
27404 322 4 2.75968 3.73846 17.7408 
27482 326 4 2.77072 3.73014 17.7673 
27515 328 4 3.20576 3.47905 17.7211 
27477 326 4 3.74879 3.55078 17.8732 
27386 321 4 3.68221 3.53805 17.893 
27403 322 4 3.73523 3.53835 17.8318 
27558 330 4 3.72269 3.50074 17.8628 
27484 326 4 4.94307 3.2235 17.9229 
27395 321 4 4.86564 3.17305 17.9394 
27570 330 4 4.91268 3.15786 17.9105 
27523 328 4 4.89799 3.16696 17.9184 
27566 330 4 1.53 3.81656 17.5589 
27492 326 4 1.55496 3.8448 17.5559 
27531 328 4 1.51352 3.79114 17.5237 
27410 322 4 4.92327 3.18685 17.8617 
27388 321 4 1.3473 4.75632 18.1461 
27565 330 4 1.36619 4.67815 18.109 
27530 328 4 1.33332 4.64918 18.0743 
27415 322 4 1.38605 4.71702 18.1352 
27491 326 4 1.37306 4.68639 18.1307 
27520 328 4 2.40043 4.03998 17.9129 
27481 326 4 2.35113 4.50704 18.2367 
27405 322 4 2.36159 4.51691 18.2262 
27382 321 4 2.32 4.54748 18.2472 
27556 330 4 2.34268 4.488 18.2105 
27476 326 4 3.32919 4.32768 18.3426 
27381 321 4 3.29271 4.33865 18.3484 
27400 322 4 3.33713 4.31679 18.3171 
27552 330 4 3.31918 4.29785 18.312 
27514 328 4 3.28735 4.28881 18.3021 
27516 328 4 4.09267 3.72789 18.1102 
27385 321 4 4.26542 4.12981 18.4495 
27402 322 4 4.31268 4.11668 18.408 
27553 330 4 4.29567 4.1077 18.4135 
27478 326 4 4.30725 4.14833 18.4486 
27517 328 4 4.17426 4.53765 18.6913 
27394 321 4 5.23812 3.92097 18.5507 
27524 328 4 5.24138 3.92844 18.5299 
27485 326 4 5.28531 3.96897 18.5545 
27409 322 4 5.28822 3.91656 18.499 
27559 330 4 5.27216 3.91755 18.515 
27529 328 4 1.6767 5.41067 18.6858 
27564 330 4 1.72568 5.43783 18.7135 
27416 322 4 1.751 5.44673 18.7725 
27490 326 4 1.71531 5.43187 18.7624 
27389 321 4 1.71978 5.50424 18.7574 
27519 328 4 2.48203 4.84974 18.494 
27480 326 4 2.90959 5.10458 18.8121 
27406 322 4 2.93904 5.09523 18.8024 
27555 330 4 2.91566 5.09495 18.7612 
27383 321 4 2.90322 5.13924 18.8037 
27518 328 4 3.36894 5.09858 18.8832 
27407 322 4 4.49204 5.47345 19.4696 
27392 321 4 4.45913 5.52217 19.4614 
27561 330 4 4.46513 5.51176 19.4135 
27401 322 4 3.91459 4.89512 18.8934 
27554 330 4 3.89216 4.9048 18.8627 
27384 321 4 3.87592 4.93041 18.9049 
27479 326 4 3.88765 4.92522 18.918 
27487 326 4 4.44612 5.52277 19.4934 
27526 328 4 4.40568 5.51118 19.4224 
27525 328 4 5.06118 4.78649 19.0805 
27408 322 4 5.13038 4.75351 19.0875 
27560 330 4 5.10835 4.77913 19.0651 
27486 326 4 5.10342 4.81056 19.1294 
27393 321 4 5.08933 4.78081 19.1077 
27928 349 4 2.21759 5.5087 29.1248 
27795 342 4 2.19277 5.42836 29.1372 
27032 302 4 2.17968 5.45984 29.1084 
27787 342 4 5.51651 4.74549 29.8347 
27033 302 4 2.66656 4.61902 29.4658 
27929 349 4 2.69233 4.66423 29.4899 
27796 342 4 2.71466 4.60089 29.476 
27034 302 4 3.53831 4.14618 29.7629 
27797 342 4 3.60807 4.15371 29.7473 
27930 349 4 3.55718 4.18166 29.7915 
27035 302 4 4.56136 4.16803 29.9201 
27931 349 4 4.58041 4.19029 29.9488 
27798 342 4 4.63362 4.20664 29.8786 
27920 349 4 5.48783 4.6878 29.9196 
27036 302 4 5.46157 4.6787 29.8952 
27024 302 4 3.38475 5.30569 29.3532 
27786 342 4 3.85464 5.08693 29.486 
27919 349 4 3.85271 5.09825 29.5222 
27025 302 4 4.33215 5.0802 29.5804 
27107 306 4 2.85136 5.57125 31.6476 
27781 342 4 4.80887 5.38282 29.5296 
27914 349 4 4.81804 5.35132 29.5863 
27108 306 4 2.11547 4.85984 31.803 
27099 306 4 3.33438 4.77412 32.0099 
27111 306 4 2.80165 2.31763 32.8356 
27112 306 4 3.7887 2.09852 33.0582 
27113 306 4 4.78344 2.38274 33.0969 
27110 306 4 2.08677 2.98136 32.4889 
27101 306 4 3.30953 3.14731 32.6039 
27102 306 4 4.30042 3.17987 32.7346 
27114 306 4 5.51934 3.09415 32.9415 
27109 306 4 1.83561 3.91188 32.111 
27100 306 4 2.82651 3.94444 32.2416 
27096 306 4 3.8174 3.977 32.3722 
27097 306 4 4.8083 4.00955 32.5029 