ITEM: TIMESTEP
0
ITEM: NUMBER OF ATOMS
950
ITEM: BOX BOUNDS pp pp pp
0.0000000000000000e+00 3.4000000000000000e+01
0.0000000000000000e+00 3.4000000000000000e+01
0.0000000000000000e+00 3.4000000000000000e+01
ITEM: ATOMS id mol type x y z 
1924 0 5 4.9 3.8 2.5 
4501 0 5 0.5 0.5 5.5 
4618 0 5 3.8 2.7 5.5 
5521 0 5 4.9 0.5 6.5 
5402 0 5 0.5 1.6 6.5 
5522 0 5 4.9 1.6 6.5 
6304 0 5 0.5 3.8 7.5 
7263 0 5 2.7 2.7 8.5 
7317 0 5 3.8 3.8 8.5 
9003 0 5 0.5 2.7 10.5 
10019 0 5 3.8 1.6 11.5 
10916 0 5 3.8 4.9 12.5 
12660 0 5 1.6 0.5 14.5 
14457 0 5 1.6 3.8 16.5 
14465 0 5 2.7 4.9 16.5 
15301 0 5 0.5 0.5 17.5 
15305 0 5 0.5 4.9 17.5 
17165 0 5 2.7 4.9 19.5 
18902 0 5 0.5 1.6 21.5 
20701 0 5 0.5 0.5 23.5 
21723 0 5 4.9 2.7 24.5 
21716 0 5 3.8 4.9 24.5 
23457 0 5 1.6 3.8 26.5 
25316 0 5 3.8 4.9 28.5 
26165 0 5 2.7 4.9 29.5 
1808 0 5 0.5 8.2 2.5 
1929 0 5 4.9 9.3 2.5 
3715 0 5 3.8 6 4.5 
3712 0 5 3.8 9.3 4.5 
5512 0 5 3.8 9.3 6.5 
6354 0 5 1.6 7.1 7.5 
6353 0 5 1.6 8.2 7.5 
10913 0 5 3.8 8.2 12.5 
10912 0 5 3.8 9.3 12.5 
11829 0 5 4.9 9.3 13.5 
12654 0 5 1.6 7.1 14.5 
12653 0 5 1.6 8.2 14.5 
13612 0 5 3.8 9.3 15.5 
15307 0 5 0.5 7.1 17.5 
15352 0 5 1.6 9.3 17.5 
18953 0 5 1.6 8.2 21.5 
19028 0 5 4.9 8.2 21.5 
20710 0 5 0.5 10.4 23.5 
22568 0 5 2.7 8.2 25.5 
23406 0 5 0.5 6 26.5 
23527 0 5 4.9 7.1 26.5 
25210 0 5 0.5 10.4 28.5 
26229 0 5 4.9 9.3 29.5 
949 0 5 1.6 12.6 1.5 
1933 0 5 4.9 13.7 2.5 
2775 0 5 2.7 15.9 3.5 
3708 0 5 3.8 13.7 4.5 
5449 0 5 1.6 12.6 6.5 
6409 0 5 3.8 12.6 7.5 
6375 0 5 2.7 15.9 7.5 
8208 0 5 3.8 13.7 9.5 
9050 0 5 1.6 11.5 10.5 
9131 0 5 4.9 11.5 10.5 
9047 0 5 1.6 14.8 10.5 
9134 0 5 4.9 14.8 10.5 
9915 0 5 0.5 15.9 11.5 
10935 0 5 4.9 15.9 12.5 
12673 0 5 2.7 13.7 14.5 
13571 0 5 2.7 11.5 15.5 
13548 0 5 1.6 13.7 15.5 
18972 0 5 2.7 12.6 21.5 
19035 0 5 4.9 15.9 21.5 
19910 0 5 3.8 11.5 22.5 
19849 0 5 1.6 12.6 22.5 
19813 0 5 0.5 13.7 22.5 
20834 0 5 4.9 14.8 23.5 
21708 0 5 3.8 13.7 24.5 
23449 0 5 1.6 12.6 26.5 
23473 0 5 2.7 13.7 26.5 
24311 0 5 0.5 11.5 27.5 
24315 0 5 0.5 15.9 27.5 
25214 0 5 0.5 14.8 28.5 
26231 0 5 4.9 11.5 29.5 
26209 0 5 3.8 12.6 29.5 
944 0 5 1.6 18.1 1.5 
1880 0 5 2.7 21.4 2.5 
1940 0 5 4.9 21.4 2.5 
4638 0 5 4.9 19.2 5.5 
4519 0 5 0.5 20.3 5.5 
4601 0 5 3.8 21.4 5.5 
5537 0 5 4.9 18.1 6.5 
7240 0 5 1.6 22.5 8.5 
9136 0 5 4.9 17 10.5 
9138 0 5 4.9 19.2 10.5 
9141 0 5 4.9 22.5 10.5 
9916 0 5 0.5 17 11.5 
11743 0 5 1.6 19.2 13.5 
11741 0 5 1.6 21.4 13.5 
12616 0 5 0.5 17 14.5 
13517 0 5 0.5 18.1 15.5 
16301 0 5 3.8 21.4 18.5 
17237 0 5 4.9 18.1 19.5 
17239 0 5 4.9 20.3 19.5 
17120 0 5 0.5 21.4 19.5 
18044 0 5 1.6 18.1 20.5 
18140 0 5 4.9 21.4 20.5 
19840 0 5 1.6 22.5 22.5 
21645 0 5 1.6 17 24.5 
21703 0 5 3.8 19.2 24.5 
22605 0 5 3.8 17 25.5 
22637 0 5 4.9 18.1 25.5 
22540 0 5 1.6 22.5 25.5 
23417 0 5 0.5 18.1 26.5 
23500 0 5 3.8 22.5 26.5 
24341 0 5 1.6 21.4 27.5 
25305 0 5 3.8 17 28.5 
22 0 5 0.5 23.6 0.5 
996 0 5 3.8 26.9 1.5 
2784 0 5 2.7 25.8 3.5 
5422 0 5 0.5 23.6 6.5 
6383 0 5 2.7 24.7 7.5 
7299 0 5 3.8 23.6 8.5 
7226 0 5 0.5 28 8.5 
9038 0 5 1.6 24.7 10.5 
10046 0 5 4.9 28 11.5 
10822 0 5 0.5 23.6 12.5 
11724 0 5 0.5 25.8 13.5 
11846 0 5 4.9 28 13.5 
13646 0 5 4.9 28 15.5 
16282 0 5 2.7 23.6 18.5 
18037 0 5 1.6 25.8 20.5 
18939 0 5 1.6 23.6 21.5 
19823 0 5 0.5 24.7 22.5 
20795 0 5 3.8 28 23.5 
21696 0 5 3.8 26.9 24.5 
22522 0 5 0.5 23.6 25.5 
23542 0 5 4.9 23.6 26.5 
23435 0 5 1.6 28 26.5 
24337 0 5 1.6 25.8 27.5 
24336 0 5 1.6 26.9 27.5 
26245 0 5 4.9 26.9 29.5 
147 0 5 4.9 29.1 0.5 
994 0 5 3.8 29.1 1.5 
2727 0 5 0.5 29.1 3.5 
3634 0 5 1.6 29.1 4.5 
4647 0 5 4.9 29.1 5.5 
4591 0 5 3.8 32.4 5.5 
5549 0 5 4.9 31.3 6.5 
7234 0 5 1.6 29.1 8.5 
7292 0 5 3.8 31.3 8.5 
8194 0 5 3.8 29.1 9.5 
8190 0 5 2.7 32.4 9.5 
9149 0 5 4.9 31.3 10.5 
9150 0 5 4.9 32.4 10.5 
10830 0 5 0.5 32.4 12.5 
12632 0 5 1.6 31.3 14.5 
13529 0 5 0.5 31.3 15.5 
13591 0 5 3.8 32.4 15.5 
15333 0 5 1.6 30.2 17.5 
17187 0 5 2.7 29.1 19.5 
18148 0 5 4.9 30.2 20.5 
19827 0 5 0.5 29.1 22.5 
20792 0 5 3.8 31.3 23.5 
21748 0 5 4.9 30.2 24.5 
23427 0 5 0.5 29.1 26.5 
24333 0 5 1.6 30.2 27.5 
240 0 5 8.2 0.5 0.5 
243 0 5 9.3 2.7 0.5 
1079 0 5 6 1.6 1.5 
2939 0 5 8.2 1.6 3.5 
2942 0 5 9.3 1.6 3.5 
2884 0 5 7.1 3.8 3.5 
2944 0 5 9.3 3.8 3.5 
3900 0 5 10.4 0.5 4.5 
3778 0 5 6 2.7 4.5 
6543 0 5 9.3 2.7 7.5 
7444 0 5 9.3 3.8 8.5 
8338 0 5 8.2 2.7 9.5 
9239 0 5 8.2 1.6 10.5 
9298 0 5 10.4 2.7 10.5 
9244 0 5 9.3 3.8 10.5 
13797 0 5 10.4 3.8 15.5 
15477 0 5 6 3.8 17.5 
15476 0 5 6 4.9 17.5 
16381 0 5 7.1 0.5 18.5 
17282 0 5 7.1 1.6 19.5 
19078 0 5 6 2.7 21.5 
19983 0 5 7.1 2.7 22.5 
20938 0 5 8.2 2.7 23.5 
20944 0 5 9.3 3.8 23.5 
21780 0 5 6 0.5 24.5 
21785 0 5 7.1 4.9 24.5 
22676 0 5 6 4.9 25.5 
24481 0 5 7.1 0.5 27.5 
24542 0 5 9.3 1.6 27.5 
24485 0 5 7.1 4.9 27.5 
26278 0 5 6 2.7 29.5 
234 0 5 8.2 7.1 0.5 
1135 0 5 8.2 6 1.5 
1071 0 5 6 10.4 1.5 
2886 0 5 7.1 6 3.5 
2934 0 5 8.2 7.1 3.5 
3774 0 5 6 7.1 4.5 
5586 0 5 7.1 6 6.5 
5590 0 5 7.1 10.4 6.5 
8290 0 5 7.1 10.4 9.5 
10971 0 5 6 10.4 12.5 
11932 0 5 8.2 9.3 13.5 
12832 0 5 8.2 9.3 14.5 
12831 0 5 8.2 10.4 14.5 
13746 0 5 9.3 6 15.5 
13690 0 5 7.1 10.4 15.5 
20995 0 5 10.4 6 23.5 
21788 0 5 7.1 8.2 24.5 
21772 0 5 6 9.3 24.5 
22795 0 5 10.4 6 25.5 
22673 0 5 6 8.2 25.5 
22749 0 5 9.3 9.3 25.5 
23695 0 5 10.4 6 26.5 
23693 0 5 10.4 8.2 26.5 
25450 0 5 9.3 10.4 28.5 
26395 0 5 10.4 6 29.5 
192 0 5 7.1 12.6 0.5 
1069 0 5 6 12.6 1.5 
2870 0 5 6 11.5 3.5 
2869 0 5 6 12.6 3.5 
2893 0 5 7.1 13.7 3.5 
3854 0 5 9.3 14.8 4.5 
3886 0 5 10.4 15.9 4.5 
4790 0 5 10.4 11.5 5.5 
6589 0 5 10.4 12.6 7.5 
8330 0 5 8.2 11.5 9.5 
8389 0 5 10.4 12.6 9.5 
8294 0 5 7.1 14.8 9.5 
9226 0 5 8.2 15.9 10.5 
10155 0 5 9.3 15.9 11.5 
12851 0 5 9.3 11.5 14.5 
13751 0 5 9.3 11.5 15.5 
13692 0 5 7.1 12.6 15.5 
13668 0 5 6 13.7 15.5 
15590 0 5 10.4 11.5 17.5 
15467 0 5 6 14.8 17.5 
17269 0 5 6 12.6 19.5 
17389 0 5 10.4 12.6 19.5 
17268 0 5 6 13.7 19.5 
17388 0 5 10.4 13.7 19.5 
19127 0 5 8.2 14.8 21.5 
19993 0 5 7.1 13.7 22.5 
20086 0 5 10.4 15.9 22.5 
21851 0 5 9.3 11.5 24.5 
21792 0 5 7.1 12.6 24.5 
23686 0 5 10.4 15.9 26.5 
24530 0 5 8.2 11.5 27.5 
24494 0 5 7.1 14.8 27.5 
26270 0 5 6 11.5 29.5 
256 0 5 9.3 17 0.5 
2864 0 5 6 18.1 3.5 
2923 0 5 8.2 19.2 3.5 
3820 0 5 8.2 22.5 4.5 
4722 0 5 8.2 20.3 5.5 
5683 0 5 10.4 19.2 6.5 
8382 0 5 10.4 20.3 9.5 
9281 0 5 10.4 21.4 10.5 
11896 0 5 7.1 17 13.5 
11897 0 5 7.1 18.1 13.5 
11958 0 5 9.3 19.2 13.5 
11900 0 5 7.1 21.4 13.5 
13697 0 5 7.1 18.1 15.5 
14658 0 5 9.3 19.2 16.5 
14659 0 5 9.3 20.3 16.5 
14560 0 5 6 22.5 16.5 
16423 0 5 8.2 19.2 18.5 
17298 0 5 7.1 19.2 19.5 
17380 0 5 10.4 22.5 19.5 
19996 0 5 7.1 17 22.5 
20925 0 5 8.2 17 23.5 
20862 0 5 6 20.3 23.5 
20922 0 5 8.2 20.3 23.5 
21885 0 5 10.4 17 24.5 
23657 0 5 9.3 18.1 26.5 
23600 0 5 7.1 21.4 26.5 
25456 0 5 9.3 17 28.5 
25458 0 5 9.3 19.2 28.5 
159 0 5 6 23.6 0.5 
1175 0 5 10.4 28 1.5 
2962 0 5 9.3 23.6 3.5 
2857 0 5 6 25.8 3.5 
4762 0 5 9.3 23.6 5.5 
4779 0 5 10.4 23.6 5.5 
4766 0 5 9.3 28 5.5 
5663 0 5 9.3 24.7 6.5 
5678 0 5 10.4 24.7 6.5 
5606 0 5 7.1 28 6.5 
6563 0 5 9.3 24.7 7.5 
6515 0 5 8.2 28 7.5 
8255 0 5 6 28 9.5 
8366 0 5 9.3 28 9.5 
9263 0 5 9.3 24.7 10.5 
10119 0 5 8.2 23.6 11.5 
11018 0 5 8.2 24.7 12.5 
11078 0 5 10.4 24.7 12.5 
11065 0 5 9.3 26.9 12.5 
12815 0 5 8.2 28 14.5 
13706 0 5 7.1 28 15.5 
15458 0 5 6 24.7 17.5 
15578 0 5 10.4 24.7 17.5 
17303 0 5 7.1 24.7 19.5 
17305 0 5 7.1 26.9 19.5 
18203 0 5 7.1 24.7 20.5 
19179 0 5 10.4 23.6 21.5 
19959 0 5 6 23.6 22.5 
20962 0 5 9.3 23.6 23.5 
20918 0 5 8.2 24.7 23.5 
20964 0 5 9.3 25.8 23.5 
20916 0 5 8.2 26.9 23.5 
20965 0 5 9.3 26.9 23.5 
22706 0 5 7.1 28 25.5 
25479 0 5 10.4 23.6 28.5 
26257 0 5 6 25.8 29.5 
268 0 5 9.3 30.2 0.5 
2913 0 5 8.2 30.2 3.5 
3814 0 5 8.2 29.1 4.5 
3753 0 5 6 30.2 4.5 
3751 0 5 6 32.4 4.5 
4773 0 5 10.4 30.2 5.5 
5669 0 5 9.3 31.3 6.5 
8312 0 5 8.2 31.3 9.5 
8251 0 5 6 32.4 9.5 
9269 0 5 9.3 31.3 10.5 
10953 0 5 6 30.2 12.5 
11073 0 5 10.4 30.2 12.5 
11010 0 5 7.1 32.4 12.5 
11908 0 5 7.1 30.2 13.5 
12810 0 5 7.1 32.4 14.5 
13711 0 5 8.2 32.4 15.5 
14671 0 5 10.4 32.4 16.5 
20009 0 5 7.1 31.3 22.5 
20852 0 5 6 31.3 23.5 
20910 0 5 7.1 32.4 23.5 
21868 0 5 9.3 30.2 24.5 
21869 0 5 9.3 31.3 24.5 
22653 0 5 6 30.2 25.5 
22713 0 5 8.2 30.2 25.5 
22773 0 5 10.4 30.2 25.5 
24509 0 5 7.1 31.3 27.5 
2220 0 5 14.8 0.5 2.5 
3121 0 5 15.9 0.5 3.5 
7564 0 5 13.7 3.8 8.5 
7556 0 5 12.6 4.9 8.5 
8462 0 5 13.7 1.6 9.5 
8463 0 5 13.7 2.7 9.5 
13024 0 5 15.9 3.8 14.5 
14818 0 5 14.8 2.7 16.5 
16558 0 5 12.6 2.7 18.5 
16505 0 5 11.5 4.9 18.5 
19316 0 5 14.8 4.9 21.5 
19325 0 5 15.9 4.9 21.5 
20103 0 5 11.5 2.7 22.5 
21005 0 5 11.5 4.9 23.5 
22859 0 5 12.6 1.6 25.5 
24603 0 5 11.5 2.7 27.5 
24657 0 5 12.6 3.8 27.5 
24656 0 5 12.6 4.9 27.5 
25504 0 5 11.5 3.8 28.5 
26523 0 5 15.9 2.7 29.5 
411 0 5 14.8 10.4 0.5 
2227 0 5 15.9 7.1 2.5 
2211 0 5 14.8 10.4 2.5 
3115 0 5 14.8 6 3.5 
3908 0 5 11.5 8.2 4.5 
4013 0 5 14.8 8.2 4.5 
4807 0 5 11.5 7.1 5.5 
5706 0 5 11.5 6 6.5 
6653 0 5 12.6 8.2 7.5 
7567 0 5 13.7 7.1 8.5 
8455 0 5 12.6 6 9.5 
8454 0 5 12.6 7.1 9.5 
8469 0 5 13.7 9.3 9.5 
8512 0 5 14.8 9.3 9.5 
9351 0 5 12.6 10.4 10.5 
12069 0 5 13.7 9.3 13.5 
12907 0 5 11.5 7.1 14.5 
14826 0 5 15.9 6 16.5 
14708 0 5 11.5 8.2 16.5 
15711 0 5 14.8 10.4 17.5 
16507 0 5 11.5 7.1 18.5 
23815 0 5 14.8 6 26.5 
24608 0 5 11.5 8.2 27.5 
24728 0 5 15.9 8.2 27.5 
24652 0 5 12.6 9.3 27.5 
407 0 5 14.8 14.8 0.5 
2173 0 5 13.7 13.7 2.5 
3015 0 5 11.5 15.9 3.5 
3106 0 5 14.8 15.9 3.5 
4812 0 5 11.5 12.6 5.5 
4814 0 5 11.5 14.8 5.5 
5750 0 5 12.6 11.5 6.5 
5713 0 5 11.5 13.7 6.5 
7515 0 5 11.5 15.9 8.5 
9432 0 5 15.9 12.6 10.5 
10306 0 5 14.8 15.9 11.5 
12106 0 5 14.8 15.9 13.5 
14711 0 5 11.5 11.5 16.5 
15671 0 5 13.7 11.5 17.5 
15733 0 5 15.9 13.7 17.5 
16635 0 5 15.9 15.9 18.5 
21048 0 5 12.6 13.7 23.5 
21107 0 5 14.8 14.8 23.5 
23713 0 5 11.5 13.7 26.5 
26532 0 5 15.9 12.6 29.5 
26414 0 5 11.5 14.8 29.5 
26507 0 5 14.8 14.8 29.5 
26506 0 5 14.8 15.9 29.5 
344 0 5 12.6 18.1 0.5 
343 0 5 12.6 19.2 0.5 
402 0 5 14.8 20.3 0.5 
2200 0 5 14.8 22.5 2.5 
3045 0 5 12.6 17 3.5 
3105 0 5 14.8 17 3.5 
3043 0 5 12.6 19.2 3.5 
3102 0 5 14.8 20.3 3.5 
3978 0 5 13.7 19.2 4.5 
7637 0 5 15.9 18.1 8.5 
7638 0 5 15.9 19.2 8.5 
7519 0 5 11.5 20.3 8.5 
7521 0 5 11.5 22.5 8.5 
10300 0 5 14.8 22.5 11.5 
12076 0 5 13.7 17 13.5 
12919 0 5 11.5 20.3 14.5 
13842 0 5 12.6 20.3 15.5 
13820 0 5 11.5 21.4 15.5 
18441 0 5 15.9 22.5 20.5 
19243 0 5 12.6 19.2 21.5 
20238 0 5 15.9 19.2 22.5 
23803 0 5 14.8 19.2 26.5 
24738 0 5 15.9 19.2 27.5 
24620 0 5 11.5 21.4 27.5 
25636 0 5 15.9 17 28.5 
25577 0 5 13.7 18.1 28.5 
26503 0 5 14.8 19.2 29.5 
335 0 5 12.6 28 0.5 
2245 0 5 15.9 26.9 2.5 
3085 0 5 13.7 26.9 3.5 
3026 0 5 11.5 28 3.5 
3982 0 5 13.7 23.6 4.5 
5783 0 5 13.7 24.7 6.5 
5737 0 5 12.6 25.8 6.5 
6639 0 5 12.6 23.6 7.5 
6745 0 5 15.9 26.9 7.5 
9337 0 5 12.6 25.8 10.5 
9446 0 5 15.9 28 10.5 
10344 0 5 15.9 25.8 11.5 
10295 0 5 14.8 28 11.5 
12022 0 5 11.5 23.6 13.5 
12024 0 5 11.5 25.8 13.5 
14738 0 5 12.6 24.7 16.5 
15683 0 5 13.7 24.7 17.5 
15685 0 5 13.7 26.9 17.5 
16522 0 5 11.5 23.6 18.5 
16536 0 5 12.6 26.9 18.5 
17544 0 5 15.9 25.8 19.5 
18338 0 5 12.6 24.7 20.5 
18444 0 5 15.9 25.8 20.5 
18395 0 5 14.8 28 20.5 
22042 0 5 15.9 23.6 24.5 
23725 0 5 11.5 26.9 26.5 
23786 0 5 13.7 28 26.5 
24622 0 5 11.5 23.6 27.5 
24742 0 5 15.9 23.6 27.5 
24744 0 5 15.9 25.8 27.5 
25643 0 5 15.9 24.7 28.5 
25536 0 5 12.6 26.9 28.5 
26545 0 5 15.9 26.9 29.5 
26435 0 5 12.6 28 29.5 
390 0 5 13.7 32.4 0.5 
391 0 5 14.8 32.4 0.5 
1289 0 5 13.7 31.3 1.5 
3988 0 5 13.7 30.2 4.5 
6691 0 5 14.8 32.4 7.5 
7588 0 5 13.7 30.2 8.5 
10234 0 5 12.6 29.1 11.5 
12931 0 5 12.6 32.4 14.5 
13950 0 5 15.9 32.4 15.5 
14731 0 5 12.6 32.4 16.5 
16529 0 5 11.5 31.3 18.5 
16530 0 5 11.5 32.4 18.5 
18448 0 5 15.9 30.2 20.5 
19291 0 5 14.8 32.4 21.5 
24627 0 5 11.5 29.1 27.5 
24634 0 5 12.6 29.1 27.5 
24747 0 5 15.9 29.1 27.5 
24748 0 5 15.9 30.2 27.5 
26550 0 5 15.9 32.4 29.5 
2401 0 5 22.5 0.5 2.5 
2399 0 5 21.4 1.6 2.5 
2338 0 5 19.2 2.7 2.5 
4137 0 5 19.2 3.8 4.5 
5038 0 5 19.2 2.7 5.5 
7800 0 5 21.4 0.5 8.5 
7739 0 5 19.2 1.6 8.5 
7678 0 5 17 2.7 8.5 
7684 0 5 18.1 3.8 8.5 
7805 0 5 22.5 4.9 8.5 
8583 0 5 18.1 2.7 9.5 
8645 0 5 20.3 4.9 9.5 
9481 0 5 18.1 0.5 10.5 
9478 0 5 17 2.7 10.5 
9484 0 5 18.1 3.8 10.5 
9545 0 5 20.3 4.9 10.5 
10502 0 5 22.5 1.6 11.5 
13080 0 5 17 0.5 14.5 
13082 0 5 18.1 1.6 14.5 
13084 0 5 18.1 3.8 14.5 
15897 0 5 21.4 3.8 17.5 
15904 0 5 22.5 3.8 17.5 
17578 0 5 17 2.7 19.5 
17576 0 5 17 4.9 19.5 
18476 0 5 17 4.9 20.5 
19438 0 5 19.2 2.7 21.5 
20338 0 5 19.2 2.7 22.5 
20403 0 5 22.5 2.7 22.5 
20397 0 5 21.4 3.8 22.5 
23879 0 5 17 1.6 26.5 
25680 0 5 17 0.5 28.5 
25800 0 5 21.4 0.5 28.5 
2286 0 5 18.1 6 2.5 
2408 0 5 22.5 8.2 2.5 
2349 0 5 20.3 9.3 2.5 
3291 0 5 21.4 10.4 3.5 
4210 0 5 22.5 10.4 4.5 
5946 0 5 20.3 6 6.5 
5948 0 5 20.3 8.2 6.5 
5991 0 5 21.4 10.4 6.5 
6832 0 5 19.2 9.3 7.5 
7792 0 5 21.4 9.3 8.5 
8633 0 5 19.2 8.2 9.5 
8572 0 5 17 9.3 9.5 
8589 0 5 18.1 9.3 9.5 
9535 0 5 19.2 6 10.5 
11288 0 5 18.1 8.2 12.5 
12173 0 5 17 8.2 13.5 
13191 0 5 21.4 10.4 14.5 
15846 0 5 20.3 6 17.5 
16735 0 5 19.2 6 18.5 
16747 0 5 20.3 7.1 18.5 
18474 0 5 17 7.1 20.5 
18472 0 5 17 9.3 20.5 
18471 0 5 17 10.4 20.5 
19375 0 5 17 6 21.5 
22195 0 5 21.4 6 24.5 
22209 0 5 22.5 9.3 24.5 
23107 0 5 22.5 7.1 25.5 
23873 0 5 17 8.2 26.5 
23890 0 5 18.1 10.4 26.5 
24909 0 5 22.5 9.3 27.5 
530 0 5 19.2 11.5 0.5 
589 0 5 21.4 12.6 0.5 
2411 0 5 22.5 11.5 2.5 
2353 0 5 20.3 13.7 2.5 
2354 0 5 20.3 14.8 2.5 
2414 0 5 22.5 14.8 2.5 
4091 0 5 18.1 11.5 4.5 
5051 0 5 20.3 11.5 5.5 
7669 0 5 17 12.6 8.5 
7752 0 5 20.3 12.6 8.5 
7812 0 5 22.5 12.6 8.5 
7694 0 5 18.1 14.8 8.5 
9553 0 5 20.3 13.7 10.5 
10428 0 5 19.2 13.7 11.5 
12288 0 5 21.4 13.7 13.5 
14027 0 5 19.2 14.8 15.5 
14086 0 5 21.4 15.9 15.5 
15890 0 5 21.4 11.5 17.5 
15889 0 5 21.4 12.6 17.5 
16694 0 5 18.1 14.8 18.5 
17566 0 5 17 15.9 19.5 
18615 0 5 22.5 15.9 20.5 
19512 0 5 22.5 12.6 21.5 
19486 0 5 21.4 15.9 21.5 
20351 0 5 20.3 11.5 22.5 
21228 0 5 19.2 13.7 23.5 
21195 0 5 18.1 15.9 23.5 
21255 0 5 20.3 15.9 23.5 
22069 0 5 17 12.6 24.5 
22095 0 5 18.1 15.9 24.5 
23090 0 5 21.4 11.5 25.5 
22993 0 5 18.1 13.7 25.5 
23955 0 5 20.3 15.9 26.5 
26567 0 5 17 14.8 29.5 
1423 0 5 19.2 19.2 1.5 
2320 0 5 19.2 22.5 2.5 
4182 0 5 21.4 20.3 4.5 
4221 0 5 22.5 22.5 4.5 
5116 0 5 22.5 17 5.5 
5000 0 5 18.1 21.4 5.5 
5924 0 5 19.2 18.1 6.5 
8565 0 5 17 17 9.5 
8680 0 5 21.4 22.5 9.5 
10399 0 5 18.1 20.3 11.5 
10420 0 5 19.2 22.5 11.5 
12201 0 5 18.1 22.5 13.5 
14862 0 5 17 20.3 16.5 
15823 0 5 19.2 19.2 17.5 
15858 0 5 20.3 19.2 17.5 
15919 0 5 22.5 20.3 17.5 
17661 0 5 20.3 22.5 19.5 
18463 0 5 17 19.2 20.5 
18619 0 5 22.5 20.3 20.5 
18621 0 5 22.5 22.5 20.5 
20300 0 5 18.1 21.4 22.5 
20420 0 5 22.5 21.4 22.5 
21199 0 5 18.1 20.3 23.5 
21319 0 5 22.5 20.3 23.5 
22184 0 5 21.4 18.1 24.5 
23959 0 5 20.3 20.3 26.5 
24821 0 5 19.2 21.4 27.5 
25661 0 5 17 21.4 28.5 
26657 0 5 20.3 18.1 29.5 
26719 0 5 22.5 20.3 29.5 
26661 0 5 20.3 22.5 29.5 
579 0 5 21.4 23.6 0.5 
1464 0 5 20.3 25.8 1.5 
2426 0 5 22.5 28 2.5 
3278 0 5 21.4 24.7 3.5 
7777 0 5 21.4 25.8 8.5 
8603 0 5 18.1 24.7 9.5 
8556 0 5 17 26.9 9.5 
9502 0 5 18.1 23.6 10.5 
10418 0 5 19.2 24.7 11.5 
12156 0 5 17 26.9 13.5 
12216 0 5 19.2 26.9 13.5 
14004 0 5 18.1 25.8 15.5 
14858 0 5 17 24.7 16.5 
15863 0 5 20.3 24.7 17.5 
17676 0 5 21.4 26.9 19.5 
18519 0 5 19.2 23.6 20.5 
18516 0 5 19.2 26.9 20.5 
18565 0 5 20.3 26.9 20.5 
19465 0 5 20.3 26.9 21.5 
23964 0 5 20.3 25.8 26.5 
24024 0 5 22.5 25.8 26.5 
24922 0 5 22.5 23.6 27.5 
24878 0 5 21.4 24.7 27.5 
26679 0 5 21.4 23.6 29.5 
507 0 5 18.1 29.1 0.5 
509 0 5 18.1 31.3 0.5 
2309 0 5 18.1 31.3 2.5 
3208 0 5 18.1 30.2 3.5 
4170 0 5 20.3 32.4 4.5 
5911 0 5 19.2 32.4 6.5 
6867 0 5 20.3 29.1 7.5 
6929 0 5 22.5 31.3 7.5 
9572 0 5 21.4 31.3 10.5 
12272 0 5 21.4 31.3 13.5 
14012 0 5 19.2 31.3 15.5 
15814 0 5 19.2 29.1 17.5 
15874 0 5 21.4 29.1 17.5 
17668 0 5 20.3 30.2 19.5 
17552 0 5 17 31.3 19.5 
18512 0 5 19.2 31.3 20.5 
18629 0 5 22.5 31.3 20.5 
19472 0 5 21.4 31.3 21.5 
22173 0 5 21.4 30.2 24.5 
23074 0 5 21.4 29.1 25.5 
23128 0 5 22.5 30.2 25.5 
24030 0 5 22.5 32.4 26.5 
24814 0 5 19.2 29.1 27.5 
3362 0 5 24.7 1.6 3.5 
4316 0 5 25.8 4.9 4.5 
6065 0 5 24.7 4.9 6.5 
6958 0 5 23.6 2.7 7.5 
7077 0 5 28 3.8 7.5 
7859 0 5 23.6 1.6 8.5 
8880 0 5 28 0.5 9.5 
9665 0 5 24.7 4.9 10.5 
10677 0 5 28 3.8 11.5 
10616 0 5 25.8 4.9 11.5 
11576 0 5 28 4.9 12.5 
12420 0 5 25.8 0.5 13.5 
12416 0 5 25.8 4.9 13.5 
13262 0 5 24.7 1.6 14.5 
14277 0 5 28 3.8 15.5 
15120 0 5 25.8 0.5 16.5 
15119 0 5 25.8 1.6 16.5 
15961 0 5 24.7 0.5 17.5 
16017 0 5 25.8 3.8 17.5 
16918 0 5 25.8 2.7 18.5 
17880 0 5 28 0.5 19.5 
17824 0 5 26.9 3.8 19.5 
17877 0 5 28 3.8 19.5 
18662 0 5 24.7 1.6 20.5 
20523 0 5 26.9 2.7 22.5 
21421 0 5 26.9 0.5 23.5 
21478 0 5 28 2.7 23.5 
23164 0 5 24.7 3.8 25.5 
24060 0 5 23.6 0.5 26.5 
24056 0 5 23.6 4.9 26.5 
25918 0 5 25.8 2.7 28.5 
25976 0 5 28 4.9 28.5 
667 0 5 24.7 7.1 0.5 
774 0 5 28 7.1 0.5 
773 0 5 28 8.2 0.5 
771 0 5 28 10.4 0.5 
1674 0 5 28 7.1 1.5 
1612 0 5 25.8 9.3 1.5 
4327 0 5 26.9 7.1 4.5 
4313 0 5 25.8 8.2 4.5 
4329 0 5 26.9 9.3 4.5 
5167 0 5 24.7 7.1 5.5 
6112 0 5 25.8 9.3 6.5 
7028 0 5 26.9 8.2 7.5 
10555 0 5 23.6 6 11.5 
10568 0 5 24.7 8.2 11.5 
10673 0 5 28 8.2 11.5 
10671 0 5 28 10.4 11.5 
11574 0 5 28 7.1 12.5 
15114 0 5 25.8 7.1 16.5 
16914 0 5 25.8 7.1 18.5 
16868 0 5 24.7 8.2 18.5 
16852 0 5 23.6 9.3 18.5 
16930 0 5 26.9 10.4 18.5 
18666 0 5 24.7 6 20.5 
18726 0 5 26.9 6 20.5 
19569 0 5 24.7 9.3 21.5 
21415 0 5 25.8 6 23.5 
21471 0 5 28 10.4 23.5 
23168 0 5 24.7 8.2 25.5 
23152 0 5 23.6 9.3 25.5 
24114 0 5 25.8 7.1 26.5 
24173 0 5 28 8.2 26.5 
24172 0 5 28 9.3 26.5 
25914 0 5 25.8 7.1 28.5 
26829 0 5 26.9 9.3 29.5 
26830 0 5 26.9 10.4 29.5 
710 0 5 25.8 11.5 0.5 
767 0 5 28 14.8 0.5 
1634 0 5 26.9 14.8 1.5 
4248 0 5 23.6 13.7 4.5 
4368 0 5 28 13.7 4.5 
4335 0 5 26.9 15.9 4.5 
5174 0 5 24.7 14.8 5.5 
6109 0 5 25.8 12.6 6.5 
6949 0 5 23.6 12.6 7.5 
8774 0 5 24.7 14.8 9.5 
10550 0 5 23.6 11.5 11.5 
10610 0 5 25.8 11.5 11.5 
10634 0 5 26.9 14.8 11.5 
10546 0 5 23.6 15.9 11.5 
14149 0 5 23.6 12.6 15.5 
15107 0 5 25.8 14.8 16.5 
16849 0 5 23.6 12.6 18.5 
16874 0 5 24.7 14.8 18.5 
16906 0 5 25.8 15.9 18.5 
17870 0 5 28 11.5 19.5 
18707 0 5 25.8 14.8 20.5 
24168 0 5 28 13.7 26.5 
24166 0 5 28 15.9 26.5 
25009 0 5 25.8 12.6 27.5 
25906 0 5 25.8 15.9 28.5 
761 0 5 28 21.4 0.5 
640 0 5 23.6 22.5 0.5 
1639 0 5 26.9 20.3 1.5 
4303 0 5 25.8 19.2 4.5 
4361 0 5 28 21.4 4.5 
4300 0 5 25.8 22.5 4.5 
5178 0 5 24.7 19.2 5.5 
6976 0 5 24.7 17 7.5 
6940 0 5 23.6 22.5 7.5 
8776 0 5 24.7 17 9.5 
8777 0 5 24.7 18.1 9.5 
8839 0 5 26.9 20.3 9.5 
10581 0 5 24.7 22.5 11.5 
10660 0 5 28 22.5 11.5 
11478 0 5 24.7 19.2 12.5 
12404 0 5 25.8 18.1 13.5 
14142 0 5 23.6 20.3 15.5 
15978 0 5 24.7 19.2 17.5 
16905 0 5 25.8 17 18.5 
16904 0 5 25.8 18.1 18.5 
16962 0 5 28 20.3 18.5 
16900 0 5 25.8 22.5 18.5 
16941 0 5 26.9 22.5 18.5 
18762 0 5 28 20.3 20.5 
20442 0 5 23.6 20.3 22.5 
21400 0 5 25.8 22.5 23.5 
23264 0 5 28 18.1 25.5 
24040 0 5 23.6 22.5 26.5 
25903 0 5 25.8 19.2 28.5 
699 0 5 25.8 23.6 0.5 
696 0 5 25.8 26.9 0.5 
1659 0 5 28 23.6 1.5 
1644 0 5 26.9 25.8 1.5 
2483 0 5 24.7 24.7 2.5 
2436 0 5 23.6 26.9 2.5 
3336 0 5 23.6 26.9 3.5 
5257 0 5 28 25.8 5.5 
6982 0 5 24.7 23.6 7.5 
6983 0 5 24.7 24.7 7.5 
6935 0 5 23.6 28 7.5 
8845 0 5 26.9 26.9 9.5 
10598 0 5 25.8 24.7 11.5 
10596 0 5 25.8 26.9 11.5 
11559 0 5 28 23.6 12.5 
12336 0 5 23.6 26.9 13.5 
13237 0 5 23.6 25.8 14.5 
18744 0 5 26.9 25.8 20.5 
19596 0 5 25.8 26.9 21.5 
24036 0 5 23.6 26.9 26.5 
24085 0 5 24.7 26.9 26.5 
24983 0 5 24.7 24.7 27.5 
25899 0 5 25.8 23.6 28.5 
693 0 5 25.8 30.2 0.5 
3448 0 5 26.9 30.2 3.5 
4353 0 5 28 30.2 4.5 
4350 0 5 26.9 32.4 4.5 
4351 0 5 28 32.4 4.5 
5247 0 5 26.9 29.1 5.5 
6094 0 5 25.8 29.1 6.5 
6931 0 5 23.6 32.4 7.5 
9690 0 5 24.7 32.4 10.5 
11548 0 5 26.9 30.2 12.5 
13233 0 5 23.6 30.2 14.5 
14131 0 5 23.6 32.4 15.5 
14250 0 5 26.9 32.4 15.5 
14251 0 5 28 32.4 15.5 
15032 0 5 23.6 31.3 16.5 
16048 0 5 26.9 30.2 17.5 
16049 0 5 26.9 31.3 17.5 
16893 0 5 25.8 30.2 18.5 
19649 0 5 26.9 31.3 21.5 
21453 0 5 28 30.2 23.5 
23131 0 5 23.6 32.4 25.5 
24993 0 5 25.8 30.2 27.5 
24989 0 5 24.7 31.3 27.5 
25890 0 5 24.7 32.4 28.5 
26788 0 5 24.7 30.2 29.5 
900 0 5 32.4 0.5 0.5 
785 0 5 29.1 4.9 0.5 
2639 0 5 30.2 1.6 2.5 
3540 0 5 30.2 0.5 3.5 
3541 0 5 31.3 0.5 3.5 
4383 0 5 29.1 2.7 4.5 
4496 0 5 32.4 4.9 4.5 
5344 0 5 31.3 3.8 5.5 
6296 0 5 32.4 4.9 6.5 
7085 0 5 29.1 4.9 7.5 
10681 0 5 29.1 0.5 11.5 
11581 0 5 29.1 0.5 12.5 
11638 0 5 30.2 2.7 12.5 
13497 0 5 32.4 3.8 14.5 
14343 0 5 31.3 2.7 15.5 
14396 0 5 32.4 4.9 15.5 
15182 0 5 29.1 1.6 16.5 
15299 0 5 32.4 1.6 16.5 
15298 0 5 32.4 2.7 16.5 
17937 0 5 30.2 3.8 19.5 
18842 0 5 31.3 1.6 20.5 
18843 0 5 31.3 2.7 20.5 
19685 0 5 29.1 4.9 21.5 
21540 0 5 30.2 0.5 23.5 
21483 0 5 29.1 2.7 23.5 
24245 0 5 31.3 4.9 26.5 
25197 0 5 32.4 3.8 27.5 
25981 0 5 29.1 0.5 28.5 
26939 0 5 30.2 1.6 29.5 
2646 0 5 31.3 6 2.5 
4446 0 5 31.3 6 4.5 
4387 0 5 29.1 7.1 4.5 
6294 0 5 32.4 7.1 6.5 
9848 0 5 31.3 8.2 10.5 
11695 0 5 32.4 6 12.5 
12546 0 5 31.3 6 13.5 
13386 0 5 29.1 6 14.5 
13448 0 5 31.3 8.2 14.5 
14346 0 5 31.3 6 15.5 
15235 0 5 30.2 6 16.5 
16195 0 5 32.4 6 17.5 
17994 0 5 32.4 7.1 19.5 
19792 0 5 32.4 9.3 21.5 
21534 0 5 30.2 7.1 23.5 
21550 0 5 31.3 10.4 23.5 
22432 0 5 30.2 9.3 24.5 
25135 0 5 30.2 6 27.5 
25150 0 5 31.3 10.4 27.5 
1786 0 5 32.4 15.9 1.5 
3586 0 5 32.4 15.9 3.5 
7992 0 5 29.1 12.6 8.5 
9851 0 5 31.3 11.5 10.5 
9888 0 5 32.4 13.7 10.5 
9827 0 5 30.2 14.8 10.5 
12494 0 5 29.1 14.8 13.5 
12555 0 5 31.3 15.9 13.5 
14291 0 5 29.1 11.5 15.5 
16186 0 5 32.4 15.9 17.5 
17990 0 5 32.4 11.5 19.5 
19694 0 5 29.1 14.8 21.5 
20687 0 5 32.4 14.8 22.5 
21492 0 5 29.1 12.6 23.5 
21494 0 5 29.1 14.8 23.5 
22427 0 5 30.2 14.8 24.5 
22455 0 5 31.3 15.9 24.5 
25126 0 5 30.2 15.9 27.5 
26929 0 5 30.2 12.6 29.5 
26894 0 5 29.1 14.8 29.5 
1758 0 5 31.3 19.2 1.5 
5359 0 5 31.3 20.3 5.5 
6196 0 5 29.1 17 6.5 
6198 0 5 29.1 19.2 6.5 
6220 0 5 30.2 22.5 6.5 
8024 0 5 30.2 18.1 8.5 
8061 0 5 31.3 22.5 8.5 
8980 0 5 32.4 22.5 9.5 
10785 0 5 32.4 17 11.5 
10699 0 5 29.1 20.3 11.5 
10701 0 5 29.1 22.5 11.5 
11625 0 5 30.2 17 12.5 
12520 0 5 30.2 22.5 13.5 
13483 0 5 32.4 19.2 14.5 
14322 0 5 30.2 20.3 15.5 
17901 0 5 29.1 22.5 19.5 
18857 0 5 31.3 18.1 20.5 
20685 0 5 32.4 17 22.5 
20623 0 5 30.2 19.2 22.5 
20622 0 5 30.2 20.3 22.5 
26081 0 5 32.4 21.4 28.5 
26897 0 5 29.1 18.1 29.5 
26923 0 5 30.2 19.2 29.5 
1764 0 5 31.3 25.8 1.5 
1777 0 5 32.4 25.8 1.5 
7178 0 5 32.4 24.7 7.5 
8062 0 5 31.3 23.6 8.5 
8919 0 5 30.2 23.6 9.5 
8904 0 5 29.1 25.8 9.5 
8964 0 5 31.3 25.8 9.5 
9805 0 5 29.1 26.9 10.5 
12503 0 5 29.1 24.7 13.5 
12575 0 5 32.4 28 13.5 
15218 0 5 30.2 24.7 16.5 
20675 0 5 32.4 28 22.5 
22405 0 5 29.1 26.9 24.5 
23302 0 5 29.1 23.6 25.5 
23305 0 5 29.1 26.9 25.5 
24279 0 5 32.4 23.6 26.5 
24218 0 5 30.2 24.7 26.5 
26018 0 5 30.2 24.7 28.5 
26076 0 5 32.4 26.9 28.5 
1771 0 5 32.4 32.4 1.5 
2673 0 5 32.4 30.2 2.5 
4472 0 5 32.4 31.3 4.5 
5311 0 5 30.2 32.4 5.5 
8070 0 5 31.3 32.4 8.5 
8972 0 5 32.4 31.3 9.5 
16172 0 5 32.4 31.3 17.5 
20674 0 5 32.4 29.1 22.5 
26014 0 5 30.2 29.1 28.5 
ITEM: TIMESTEP
100000
ITEM: NUMBER OF ATOMS
950
ITEM: BOX BOUNDS pp pp pp
0.0000000000000000e+00 3.4000000000000000e+01
0.0000000000000000e+00 3.4000000000000000e+01
0.0000000000000000e+00 3.4000000000000000e+01
ITEM: ATOMS id mol type x y z 
8070 0 5 5.36218 1.17636 1.55808 
2886 0 5 3.37125 4.10134 1.88062 
240 0 5 2.34742 4.01531 2.72201 
8312 0 5 5.11127 1.0927 2.91892 
4591 0 5 5.23367 4.80979 3.21284 
7178 0 5 0.147873 1.04963 4.75211 
5402 0 5 2.46265 1.23064 4.79284 
5521 0 5 3.13454 2.01734 5.41388 
7226 0 5 2.258 1.48801 6.25183 
9150 0 5 3.29432 0.904229 5.7463 
7292 0 5 0.0202134 1.87098 5.95024 
10916 0 5 4.84265 3.06793 13.2224 
13386 0 5 0.582177 4.03419 13.658 
3715 0 5 0.610569 0.890955 11.3637 
7317 0 5 2.45331 2.84265 14.8046 
10971 0 5 3.60711 5.51924 16.3272 
6354 0 5 2.71378 3.3985 15.9613 
17165 0 5 1.04903 2.72803 16.7007 
18843 0 5 5.5691 2.78339 19.1111 
20852 0 5 3.00033 4.72175 20.0591 
13646 0 5 3.79402 4.14319 21.0142 
14346 0 5 2.47882 3.17368 22.6879 
18148 0 5 0.0388916 5.58904 28.057 
20938 0 5 1.75116 3.60579 24.1309 
23457 0 5 5.1607 3.58617 25.2126 
23695 0 5 3.53015 4.82727 24.7453 
21868 0 5 5.57897 0.541037 26.151 
21716 0 5 1.97388 5.55002 23.5725 
25504 0 5 2.85484 2.30148 27.0302 
22522 0 5 4.23892 0.785451 28.1761 
1929 0 5 0.0304442 5.34647 25.8394 
24485 0 5 5.64802 3.91612 26.2349 
26278 0 5 4.12908 0.735181 30.3093 
2934 0 5 2.77525 4.10781 30.8667 
18902 0 5 0.847918 0.284919 31.1336 
24336 0 5 2.19009 3.13791 31.1934 
26939 0 5 5.47377 1.1485 31.557 
1079 0 5 0.69065 1.29374 32.0386 
6296 0 5 2.85277 3.05421 33.8655 
4368 0 5 0.547452 8.76943 0.455373 
3774 0 5 5.46155 7.16168 3.55171 
6304 0 5 4.06851 6.12803 0.212814 
1764 0 5 3.16609 8.62167 1.95784 
8972 0 5 2.26975 6.86519 4.37603 
5586 0 5 4.43337 6.81403 11.0233 
9003 0 5 3.72053 6.9391 7.76585 
5512 0 5 2.89462 7.96423 8.13192 
9149 0 5 0.747258 7.52115 8.92394 
14457 0 5 4.32326 7.84025 11.6428 
13692 0 5 0.995663 10.7657 16.0563 
15476 0 5 5.4131 7.16503 12.8178 
13690 0 5 2.14686 10.4503 12.9342 
8290 0 5 3.37676 6.60463 13.2489 
12832 0 5 2.53348 6.62007 14.2347 
13448 0 5 1.63041 10.5687 15.0614 
21792 0 5 0.658269 11.1509 19.9558 
13711 0 5 5.22539 6.66311 20.2915 
19983 0 5 4.6008 7.99704 22.2085 
19993 0 5 2.93183 6.18976 23.1028 
14396 0 5 1.41319 9.82005 24.4299 
16195 0 5 2.06416 10.1524 23.4354 
21788 0 5 3.11556 9.57603 25.8439 
26894 0 5 0.540483 11.2103 26.2016 
19792 0 5 3.44669 10.4571 26.3941 
19028 0 5 0.889999 5.96922 23.6199 
949 0 5 3.85491 10.9513 29.7177 
26229 0 5 0.00753908 11.0891 28.3495 
26829 0 5 3.47037 11.5648 2.06747 
8062 0 5 2.49396 15.7979 2.44545 
9141 0 5 1.6771 16.8836 0.782082 
9226 0 5 3.84746 12.1845 3.58565 
6220 0 5 2.73878 16.8618 3.06376 
9047 0 5 5.40908 12.0005 5.45923 
9050 0 5 1.30526 14.2819 7.38947 
9351 0 5 5.11806 12.7171 8.44727 
2775 0 5 5.21992 16.1089 6.04501 
10935 0 5 3.83934 14.7625 12.2522 
10912 0 5 0.405323 15.5916 12.8658 
14659 0 5 4.13844 14.9528 16.6513 
12654 0 5 2.18953 13.955 15.7565 
15467 0 5 5.15268 13.7426 15.4763 
13668 0 5 5.41983 14.3651 16.8835 
11932 0 5 5.60144 13.5385 11.488 
23527 0 5 4.82909 14.1729 17.8287 
10913 0 5 4.79816 15.4636 17.4821 
17994 0 5 1.25458 16.7569 21.2937 
19035 0 5 2.3813 15.4567 19.7889 
15352 0 5 2.0449 12.8669 21.6277 
23449 0 5 2.39021 11.9486 22.3153 
19849 0 5 2.97073 16.2131 23.9679 
234 0 5 3.92151 12.4328 26.8947 
22568 0 5 1.85302 12.384 27.0755 
17269 0 5 3.73437 13.7751 27.0445 
767 0 5 2.87977 16.5208 29.0399 
23406 0 5 3.24361 11.5462 30.6329 
3708 0 5 3.93734 14.8283 33.5522 
9281 0 5 5.56586 21.3889 5.10082 
6375 0 5 4.3803 20.7002 4.8134 
3015 0 5 5.51425 18.6966 1.00584 
6515 0 5 5.63036 20.8063 2.05835 
9446 0 5 4.23456 21.2798 8.46504 
13517 0 5 4.5717 20.6532 11.5469 
12616 0 5 0.737261 18.8226 15.2164 
16301 0 5 2.28051 20.4157 17.6413 
19996 0 5 4.02721 18.7062 22.5478 
15307 0 5 2.53931 17.2123 21.0963 
17298 0 5 5.41566 21.3987 21.2913 
17388 0 5 2.78211 19.2391 22.3247 
18044 0 5 0.887137 20.4649 21.9489 
21703 0 5 2.33241 21.6478 23.4496 
24168 0 5 1.19996 21.7693 24.2304 
18972 0 5 1.53353 20.1105 25.2956 
22637 0 5 4.46688 20.8387 24.6404 
21645 0 5 2.43511 20.2512 27.3516 
21708 0 5 4.77866 20.4303 26.4656 
26270 0 5 2.75733 17.0265 27.9872 
23473 0 5 2.09623 21.0034 28.3358 
21492 0 5 0.640475 20.4204 28.5385 
26081 0 5 5.16487 22.2823 32.714 
23600 0 5 3.74987 22.9623 2.3503 
4519 0 5 1.19659 25.8815 3.84664 
7299 0 5 5.24446 23.6846 6.56785 
7240 0 5 1.08008 26.2619 6.41377 
4638 0 5 3.47233 24.3234 7.40265 
13697 0 5 3.84797 25.2047 9.26266 
5422 0 5 0.682315 25.7355 8.90628 
12503 0 5 3.99924 28.2703 10.1502 
11741 0 5 0.240685 24.6676 10.9495 
15458 0 5 1.24695 27.7125 14.4774 
17237 0 5 3.82499 24.2603 17.8725 
18037 0 5 1.68127 24.7311 17.5105 
19959 0 5 1.95673 26.8065 18.7537 
16282 0 5 0.882787 26.4036 20.2679 
23417 0 5 3.36254 24.8098 24.421 
19827 0 5 5.46129 27.8389 24.4065 
18939 0 5 3.63754 23.3595 26.4223 
25214 0 5 2.83646 26.5495 26.5042 
24337 0 5 3.2503 26.498 27.7879 
22 0 5 2.99338 22.8782 23.6411 
23542 0 5 0.620398 22.8855 30.6317 
24279 0 5 0.174921 23.7239 29.2251 
26014 0 5 1.94292 29.8999 3.28967 
2673 0 5 4.07849 30.1111 4.2197 
1940 0 5 3.50739 29.5735 0.0177057 
2884 0 5 3.31902 30.6271 5.38306 
25197 0 5 5.53801 32.9457 4.14746 
8190 0 5 2.06834 29.6064 10.4449 
2857 0 5 2.97003 31.0477 10.9871 
12931 0 5 4.28039 31.6152 10.9948 
13497 0 5 2.89192 33.1282 12.19 
15301 0 5 5.13531 32.7364 13.9504 
11846 0 5 0.739464 32.9712 11.5369 
14465 0 5 1.90128 33.8216 16.2473 
17187 0 5 1.5452 32.4194 21.8422 
23500 0 5 1.56017 31.5733 23.9259 
21696 0 5 2.61738 31.3697 26.0604 
23302 0 5 0.0209732 28.6302 30.895 
23435 0 5 3.03438 33.842 33.5945 
2211 0 5 6.57067 4.52923 0.150322 
509 0 5 10.662 0.0160884 4.40411 
1071 0 5 8.21228 1.39601 1.4961 
6353 0 5 7.28012 0.421262 3.96074 
10046 0 5 5.77063 1.99185 3.78313 
8964 0 5 8.28596 0.489773 7.12214 
5522 0 5 8.33645 3.28837 7.16588 
4618 0 5 6.88226 1.44413 9.14857 
7564 0 5 8.68268 4.37756 11.1077 
13746 0 5 9.85833 4.82581 13.1577 
8251 0 5 7.2252 1.5421 13.1996 
12907 0 5 7.9523 3.72731 14.325 
9239 0 5 10.23 0.284836 16.0988 
9545 0 5 9.14698 0.0656024 15.1765 
11073 0 5 8.73966 0.404124 17.3659 
21785 0 5 11.2847 1.97199 21.0445 
18395 0 5 10.0482 1.79467 18.9898 
21869 0 5 9.47951 3.35883 20.4034 
1135 0 5 9.41072 4.73652 27.6721 
21780 0 5 7.23883 0.659821 23.9398 
22653 0 5 6.90562 2.04298 25.4649 
15032 0 5 9.5026 2.78603 25.0803 
22713 0 5 7.88376 1.08925 25.9792 
24652 0 5 8.8835 3.16862 29.2199 
26550 0 5 9.68618 4.16713 33.875 
20009 0 5 8.50568 1.01429 30.028 
21772 0 5 6.75744 4.45866 31.8879 
24542 0 5 10.9219 2.73619 32.9694 
192 0 5 6.56404 4.84719 33.0382 
3751 0 5 6.58702 2.71349 28.6905 