ITEM: TIMESTEP
7000000
ITEM: NUMBER OF ATOMS
950
ITEM: BOX BOUNDS pp pp pp
7.3598007983716585e-01 3.3264019920151441e+01
7.3598007983716585e-01 3.3264019920151441e+01
7.3598007983716585e-01 3.3264019920151441e+01
ITEM: ATOMS id mol type x y z 
6353 0 5 1.0944 2.33468 1.19539 
9553 0 5 3.01258 3.37686 0.902248 
2426 0 5 0.871799 2.57915 3.91141 
9888 0 5 3.03849 5.9993 2.88766 
8330 0 5 4.84512 4.59824 2.95189 
8603 0 5 4.25142 2.49396 5.22834 
17298 0 5 4.09395 5.589 5.73101 
8583 0 5 0.977665 1.37116 8.68423 
7694 0 5 3.62427 2.40838 8.50601 
21415 0 5 5.18687 4.0262 8.03476 
5051 0 5 0.953633 3.04154 10.7628 
10019 0 5 2.96242 4.20617 10.6141 
25918 0 5 1.48561 3.94133 12.7599 
3336 0 5 2.03681 1.64288 15.7461 
24337 0 5 2.90867 4.56691 16.2285 
13842 0 5 3.39202 5.15357 17.7732 
3121 0 5 2.29952 0.770917 19.1098 
22195 0 5 2.81166 2.81097 18.9123 
2338 0 5 2.5722 4.39296 20.0929 
12503 0 5 1.94112 5.11333 20.8127 
1808 0 5 0.935354 2.06434 23.6124 
26081 0 5 4.52732 3.04347 24.0132 
5783 0 5 4.38155 4.06064 23.2835 
15874 0 5 4.27789 1.12013 25.3946 
3814 0 5 4.16417 3.81323 25.7829 
19179 0 5 5.30655 4.25703 25.927 
343 0 5 0.751454 5.02456 27.3815 
3982 0 5 1.23311 0.875603 29.4989 
8845 0 5 2.0225 3.62098 28.5345 
21780 0 5 1.28314 2.517 30.9562 
26014 0 5 4.6988 3.2514 31.0023 
10785 0 5 3.65365 4.72939 29.7101 
16735 0 5 2.16494 9.35538 3.39586 
20918 0 5 2.25371 7.21087 7.27076 
2775 0 5 1.00865 11.1022 6.19457 
13591 0 5 2.94109 6.55037 8.91413 
6294 0 5 1.96266 9.77742 9.34597 
13692 0 5 1.3741 10.1216 8.47378 
18726 0 5 3.37194 11.0233 8.52747 
19649 0 5 3.07744 7.41499 10.8031 
19486 0 5 5.68954 6.34504 11.5564 
21483 0 5 4.1324 10.5559 10.6288 
8572 0 5 3.2734 9.27243 18.7412 
5549 0 5 5.06309 6.52657 19.2019 
243 0 5 2.30474 9.65841 21.3844 
3208 0 5 4.09762 8.56161 20.8968 
22184 0 5 1.03238 11.3321 27.1608 
8366 0 5 4.51953 8.07861 28.017 
5116 0 5 1.1646 10.0059 28.884 
16852 0 5 2.75335 6.97797 30.9059 
18140 0 5 2.4561 10.976 30.3925 
17870 0 5 5.96692 7.27504 32.7448 
944 0 5 1.87868 12.9323 1.51821 
8645 0 5 4.52792 13.0755 2.00705 
12173 0 5 3.21433 12.7294 3.52752 
9226 0 5 4.57569 11.6025 3.28707 
19983 0 5 2.84749 13.6461 3.16142 
10971 0 5 1.70312 13.9505 4.85588 
25680 0 5 2.45189 14.5956 5.58007 
5449 0 5 1.33216 15.2195 5.63597 
23600 0 5 3.9503 13.9672 10.9211 
21708 0 5 4.45036 15.457 9.94969 
10155 0 5 1.60709 13.1298 12.6679 
16282 0 5 1.8427 14.2592 13.8337 
18615 0 5 0.798157 15.502 16.38 
25661 0 5 5.52061 15.4665 15.3691 
20995 0 5 1.93012 11.8337 17.785 
12201 0 5 5.55154 14.1853 18.0189 
26435 0 5 4.41587 11.7397 18.8656 
17566 0 5 1.15503 14.3368 18.8705 
8512 0 5 1.48137 14.1177 21.6718 
26507 0 5 4.05657 14.6304 21.8142 
7444 0 5 4.53754 16.6896 21.9481 
10046 0 5 4.19897 16.0805 24.1635 
2962 0 5 4.62201 14.2731 24.7112 
24657 0 5 2.29543 16.6741 24.3103 
9141 0 5 3.33401 16.4795 24.8673 
16747 0 5 2.66912 13.2441 27.2347 
23473 0 5 0.851113 13.9491 26.5697 
4361 0 5 3.86125 14.7396 27.5802 
4210 0 5 3.46456 14.26 30.196 
9478 0 5 5.94616 14.4122 32.1153 
22605 0 5 1.05318 17.0817 4.76333 
4647 0 5 2.07611 19.7344 4.78463 
5924 0 5 4.64975 17.9687 6.86252 
19316 0 5 3.84651 21.4474 8.86622 
21319 0 5 5.52516 20.8333 14.9139 
1924 0 5 1.80889 18.9065 15.7814 
17269 0 5 3.9481 20.0607 16.0095 
24909 0 5 4.42139 17.4895 17.3904 
16893 0 5 5.77835 20.8093 17.0358 
4812 0 5 5.01792 21.8768 20.4787 
4446 0 5 3.64528 19.6277 22.3788 
13233 0 5 4.01342 22.1498 28.5744 
8776 0 5 5.04318 22.0181 29.1826 
13668 0 5 4.67174 20.5474 31.2277 
24494 0 5 2.42814 27.6841 1.15687 
693 0 5 5.01511 26.0731 1.49732 
18621 0 5 5.14788 25.6062 4.24355 
25976 0 5 2.61276 27.1903 3.04717 
24060 0 5 4.47627 26.2354 3.71604 
6983 0 5 4.22898 26.3324 5.94292 
24748 0 5 1.23498 23.7223 7.85557 
5359 0 5 2.09983 25.2925 9.57478 
19078 0 5 2.67687 25.2843 8.7639 
8462 0 5 4.22774 24.5463 7.9966 
5311 0 5 4.43348 25.7988 9.60179 
19827 0 5 1.4525 25.5898 10.5193 
9572 0 5 4.91694 26.4227 13.2985 
24744 0 5 4.74208 22.4838 15.1793 
24509 0 5 2.3347 24.6883 13.6238 
26076 0 5 2.89763 23.1242 15.5637 
26679 0 5 5.42222 23.2345 15.7427 
26545 0 5 5.93189 25.8557 18.3638 
3362 0 5 4.64055 25.7479 25.9728 
5713 0 5 2.135 23.4916 26.5091 
10830 0 5 4.32932 25.7694 31.4955 
3105 0 5 4.62008 24.3316 32.0713 
15477 0 5 1.05224 28.1896 2.56632 
3115 0 5 3.28437 27.8728 2.66728 
18744 0 5 4.96838 31.5214 4.78835 
3820 0 5 1.12194 28.0272 7.46575 
24656 0 5 4.73601 28.6954 7.55033 
15685 0 5 1.76516 29.3434 9.82632 
24279 0 5 2.95975 29.6477 11.4872 
7678 0 5 4.66172 29.0655 13.9359 
18707 0 5 1.43844 31.4958 18.1633 
6065 0 5 2.57058 31.533 17.8665 
774 0 5 5.16318 30.8471 19.8693 
5178 0 5 3.94923 33.1238 20.4779 
20300 0 5 5.10299 32.7489 19.4282 
10913 0 5 3.53898 29.2614 22.3475 
12156 0 5 3.34327 31.3878 22.246 
996 0 5 4.30248 33.1681 21.6882 
4638 0 5 4.63784 32.275 22.3961 
21540 0 5 1.58127 29.0589 23.3411 
4248 0 5 2.17612 28.9981 22.5104 
25643 0 5 3.93345 29.6392 23.8051 
15733 0 5 1.43044 30.1856 23.6464 
6940 0 5 1.58999 30.8578 22.8428 
23406 0 5 1.92355 32.3468 23.747 
12654 0 5 5.22202 28.9858 25.3817 
21453 0 5 1.49294 32.9179 24.5993 
15307 0 5 1.94234 31.7207 24.4518 
240 0 5 0.838556 31.2771 26.17 
16962 0 5 5.94873 29.8975 26.036 
10677 0 5 5.0239 31.4517 26.6574 
23955 0 5 1.1187 28.2091 29.048 
4790 0 5 5.61615 29.024 29.4968 
10912 0 5 5.27066 30.0303 28.5223 
14731 0 5 1.76876 30.4543 30.4181 
12404 0 5 0.882833 32.7435 30.1908 
6639 0 5 3.96284 32.7906 30.1402 
16048 0 5 2.66694 31.2061 32.6732 
14250 0 5 1.6692 31.8588 31.5239 
2399 0 5 3.16982 33.2147 32.1087 
15458 0 5 6.7524 2.28304 3.12842 
15590 0 5 10.0759 5.09272 2.86089 
6929 0 5 7.50321 1.80486 5.00345 
10701 0 5 6.34604 3.59472 4.80504 
18565 0 5 9.12929 3.06683 10.7448 
26503 0 5 11.0798 2.56899 10.6424 
1764 0 5 8.71147 4.4225 12.1102 
23873 0 5 8.63577 5.5803 11.7086 
13262 0 5 7.51043 1.99904 13.8302 
5669 0 5 7.09858 2.52414 14.6457 
5663 0 5 11.085 3.55606 13.9291 
16941 0 5 10.776 1.91226 16.4156 
4383 0 5 11.4265 2.81126 16.2723 
18516 0 5 11.0995 5.42927 18.2484 
10699 0 5 8.66661 1.12809 21.5006 
25577 0 5 9.38521 2.37026 21.1938 
21492 0 5 7.85979 3.48693 21.2011 
2639 0 5 7.00987 2.44693 25.0634 
8255 0 5 9.34518 3.51706 24.7669 
21478 0 5 11.3559 4.07699 25.5374 
1674 0 5 6.59394 1.47158 26.5737 
10671 0 5 8.25219 1.43623 27.3464 
7777 0 5 10.0212 4.30862 26.5857 
14012 0 5 9.34491 5.77735 26.0526 
10555 0 5 8.34829 1.79333 31.0911 
13690 0 5 11.0137 3.58378 30.134 
10295 0 5 8.70332 7.54065 1.64489 
9003 0 5 10.359 6.5049 1.90835 
2353 0 5 10.5436 8.15386 2.29658 
19512 0 5 10.6356 8.07097 1.05379 
24315 0 5 10.7169 10.1135 2.01987 
17268 0 5 10.4413 6.76016 3.6729 
26567 0 5 9.6305 9.26439 2.63652 
15119 0 5 10.5721 8.02453 4.1009 
13706 0 5 10.8354 10.481 3.90055 
3448 0 5 11.3342 7.29328 6.01905 
18842 0 5 10.9652 9.03563 7.86477 
1786 0 5 8.43878 10.2713 6.7882 
25636 0 5 8.17842 7.39052 13.3876 
19243 0 5 6.49027 6.96431 16.8721 
589 0 5 10.4004 10.4226 16.0611 
7564 0 5 8.80729 8.13588 17.0422 
7077 0 5 11.2543 7.08039 18.9638 
12216 0 5 6.167 10.483 20.5909 
21868 0 5 9.22831 10.59 19.9931 
24085 0 5 7.36592 8.92811 20.6201 
24634 0 5 6.50022 7.59823 22.8731 
335 0 5 9.13801 6.66741 24.1319 
7792 0 5 10.4436 6.40137 27.4005 
2309 0 5 6.53726 10.931 27.8221 
4766 0 5 11.0387 11.4211 27.868 
8972 0 5 7.24847 6.56437 31.6836 
11559 0 5 7.27777 10.2786 33.1741 
21885 0 5 7.90751 12.6735 2.83918 
26270 0 5 11.5357 14.1639 3.51288 
18939 0 5 6.25325 15.4493 3.41144 
14346 0 5 11.5732 13.1667 6.07922 
26506 0 5 10.8697 14.6964 5.38345 
2727 0 5 8.51912 15.4532 6.86656 
20944 0 5 9.86828 13.1806 9.46052 
13612 0 5 11.5641 14.9054 8.85547 
12616 0 5 9.82541 15.1394 9.31873 
13080 0 5 7.99194 13.0963 10.613 
19438 0 5 7.88828 14.1301 11.5291 
17237 0 5 8.03185 15.2523 12.7879 
16505 0 5 8.34551 14.0282 14.5828 
21788 0 5 7.40917 15.4929 16.6356 
7637 0 5 7.81787 14.2187 20.0441 
23305 0 5 11.2531 13.9957 19.7297 
19375 0 5 10.1979 15.7439 19.373 
8455 0 5 8.15585 15.9021 22.7097 
699 0 5 6.32533 11.5943 26.9362 
24481 0 5 10.2013 15.3226 30.2351 
21421 0 5 10.2509 14.582 32.4866 
20351 0 5 8.88404 17.3726 2.76249 
9432 0 5 10.3632 18.4742 3.97984 
10822 0 5 6.37274 19.7969 7.64981 
20925 0 5 6.6709 20.7141 8.07596 
12494 0 5 11.2806 22.0876 8.77295 
18843 0 5 10.5456 22.3178 9.48623 
8208 0 5 7.56806 17.0835 11.4786 
14711 0 5 9.15395 17.9753 12.1073 
5522 0 5 6.8217 17.0757 14.9214 
18762 0 5 6.55307 22.3033 15.633 
1659 0 5 8.03291 20.6453 15.6205 
20403 0 5 8.72103 17.3431 18.7734 
6409 0 5 10.4427 18.5598 21.8675 
3102 0 5 10.9555 19.5985 22.3465 
159 0 5 7.17328 21.3707 22.1521 
7812 0 5 7.54803 17.2255 24.2211 
22522 0 5 6.54444 17.2711 22.932 
12022 0 5 10.1322 18.0335 22.9686 
18662 0 5 8.87086 18.9125 22.8988 
11073 0 5 8.13914 17.3788 26.0861 
1639 0 5 8.944 18.1896 26.0936 
24603 0 5 6.23023 17.0693 28.2287 
12907 0 5 7.23715 17.9102 28.0679 
25210 0 5 7.17417 19.5429 27.9634 
15032 0 5 11.4464 19.0216 28.3617 
14858 0 5 10.6832 18.5192 30.6334 
9239 0 5 11.4111 17.2108 29.8639 
6354 0 5 9.11906 27.4538 0.820341 
6745 0 5 11.0323 25.1438 3.29722 
20852 0 5 9.97183 26.9545 3.03801 
7556 0 5 10.2443 23.963 11.7299 
23500 0 5 7.65376 24.0295 15.7227 
21748 0 5 8.67597 24.7381 15.564 
25504 0 5 8.76779 24.3365 19.7186 
20710 0 5 9.58472 27.0102 20.6067 
24620 0 5 9.89589 27.0039 19.6268 
14086 0 5 11.4899 26.3748 19.3925 
24166 0 5 10.4111 25.681 21.1618 
2411 0 5 11.5053 25.2411 24.7501 
5991 0 5 7.19251 25.106 26.653 
22795 0 5 10.1223 27.4584 26.5307 
25126 0 5 6.37067 23.5728 28.1584 
26245 0 5 10.1004 24.1546 29.2607 
18448 0 5 6.41702 27.7767 28.056 
6383 0 5 9.65689 23.7899 30.094 
667 0 5 9.98579 22.7616 30.3854 
1135 0 5 9.40502 26.2271 30.456 
7317 0 5 8.4932 23.0259 32.6745 
6304 0 5 9.59733 24.8005 31.9917 
6109 0 5 6.63845 28.56 2.96558 
17389 0 5 7.92514 32.7528 3.10429 
24622 0 5 9.7383 31.7873 4.27511 
16874 0 5 6.45179 33.0555 6.14085 
22455 0 5 8.41723 31.2793 7.69569 
20862 0 5 9.95056 29.7341 7.67495 
22 0 5 7.59931 31.9063 6.25884 
7263 0 5 10.2738 32.3113 7.62502 
26897 0 5 6.31599 31.2529 9.72486 
13797 0 5 7.95633 30.5734 10.7502 
25914 0 5 6.87748 31.424 11.4891 
18203 0 5 9.29613 30.9115 10.5135 
5606 0 5 11.1458 28.8041 12.4127 
23152 0 5 11.4571 31.1166 13.0028 
6958 0 5 11.167 27.9689 13.9099 
14251 0 5 10.9585 33.1907 13.6316 
17824 0 5 9.81715 33.2573 13.8312 
18463 0 5 6.99308 28.5885 16.4844 
11846 0 5 6.71921 29.5374 16.6233 
17303 0 5 9.7271 28.5728 18.0658 
19792 0 5 10.7764 30.7192 18.2485 
19569 0 5 6.471 32.9553 18.9596 
3045 0 5 7.52958 30.0141 20.6408 
19959 0 5 11.4373 32.7828 21.5851 
23264 0 5 7.34997 30.2164 23.1206 
16904 0 5 6.51229 31.6992 26.8341 
23657 0 5 9.12022 32.6177 27.173 
21534 0 5 7.13211 32.5769 27.9169 
16381 0 5 7.84771 33.0112 31.0483 
2408 0 5 11.581 1.20868 2.41333 
19035 0 5 14.2289 1.70874 0.970589 
15961 0 5 13.6281 0.97312 5.53236 
2354 0 5 15.527 4.51232 5.68166 
13571 0 5 13.457 4.9326 6.26146 
20523 0 5 16.6355 1.04471 9.70632 
22069 0 5 11.9919 3.65058 9.26196 
3278 0 5 16.3695 4.24595 9.13313 
4814 0 5 13.4934 5.86123 8.97764 
24485 0 5 14.4478 5.36331 9.23574 
19291 0 5 14.2235 2.74783 10.3681 
2483 0 5 14.2605 2.71598 11.5726 
6976 0 5 16.8691 5.91637 13.6935 
3634 0 5 16.1759 0.849441 16.6419 
21471 0 5 15.1945 5.25636 16.062 
20701 0 5 12.3293 3.14331 17.0928 
12815 0 5 13.75 4.11918 18.0977 
26523 0 5 13.575 5.93641 17.5573 
9136 0 5 15.3613 5.28244 18.7852 
7684 0 5 12.4404 1.53631 19.3629 
10616 0 5 13.3397 3.51961 19.0542 
14322 0 5 12.5657 5.96668 20.226 
22095 0 5 16.5621 4.44428 19.8857 
8190 0 5 13.8106 1.61353 20.9207 
8980 0 5 13.2403 3.6437 20.709 
4496 0 5 16.103 4.25571 22.345 
11548 0 5 13.0454 1.47377 23.452 
15683 0 5 16.2098 4.17627 24.1496 
7234 0 5 16.6782 4.08982 23.1967 
14826 0 5 16.5329 6.11132 22.7908 
19996 0 5 16.4482 5.89356 25.0425 
13548 0 5 15.9922 4.89975 29.3001 
24989 0 5 16.5662 4.43792 28.6028 
16301 0 5 12.6023 5.48948 30.256 
23302 0 5 15.8497 6.04924 31.0485 
11958 0 5 13.6593 4.20158 32.012 
390 0 5 15.9339 4.5238 32.3282 
24311 0 5 14.7757 7.77991 2.94838 
20622 0 5 14.9196 10.3084 6.1171 
23879 0 5 16.0846 6.44437 6.27274 
6198 0 5 15.4216 9.59806 6.95979 
22427 0 5 12.4722 7.48221 8.17034 
8589 0 5 13.2712 11.284 9.74757 
9298 0 5 13.5799 7.07318 11.5477 
10568 0 5 13.3661 10.579 10.4328 
7638 0 5 12.2531 7.43339 13.3509 
15823 0 5 16.2689 10.305 11.7131 
5257 0 5 14.9504 7.28491 15.8025 
9263 0 5 13.9734 8.94703 16.8595 
12831 0 5 13.1592 10.7796 15.9828 
21048 0 5 14.1968 10.957 15.5972 
10344 0 5 15.6553 6.34861 17.9966 
11743 0 5 16.9693 7.87403 18.1065 
9827 0 5 12.2213 7.45495 20.0574 
24173 0 5 11.7347 9.77783 19.1321 
11288 0 5 14.6028 10.9641 19.5827 
18476 0 5 15.3888 11.0711 21.9313 
8680 0 5 12.8385 9.62765 25.4483 
21785 0 5 16.4402 9.57501 25.3729 
3778 0 5 12.8212 8.08378 27.6811 
7226 0 5 12.477 10.7619 27.1103 
20397 0 5 13.5704 7.44933 32.5589 
26165 0 5 15.2228 7.5147 32.7739 
14738 0 5 12.8505 8.08979 32.2081 
25479 0 5 15.9969 8.11161 32.2763 
25305 0 5 12.1567 10.1465 33.1433 
16900 0 5 12.823 11.8094 1.6607 
25316 0 5 15.25 12.6051 0.995585 
14465 0 5 13.6156 15.1728 1.33593 
9481 0 5 13.1322 15.7941 2.01028 
21703 0 5 13.883 15.6879 3.72944 
17544 0 5 16.6605 11.5971 5.03696 
8061 0 5 14.3314 14.5606 5.48642 
20685 0 5 14.9511 16.9963 4.57525 
16195 0 5 14.0211 13.8527 6.52541 
3026 0 5 15.1589 13.5342 6.33621 
13711 0 5 12.1716 15.7731 7.74292 
4335 0 5 12.7821 16.8308 7.29211 
16186 0 5 14.1673 13.0564 9.42296 
24742 0 5 12.8804 16.58 9.23489 
26657 0 5 14.372 16.9664 9.30761 
14659 0 5 16.4058 11.7315 10.4693 
3712 0 5 12.3875 14.5285 10.9128 
9665 0 5 14.4594 13.9983 10.2072 
10610 0 5 16.8015 14.4086 10.9202 
2673 0 5 14.3569 14.0325 14.7748 
1777 0 5 11.729 12.616 15.193 
23074 0 5 12.003 14.6128 20.3663 
23090 0 5 12.2428 14.2174 21.359 
16529 0 5 12.4801 16.76 21.6259 
12653 0 5 15.9528 14.5644 23.1428 
13950 0 5 13.4905 15.7546 23.0237 
4353 0 5 12.0847 14.8753 27.4435 
13751 0 5 12.7719 14.21 28.0718 
9915 0 5 16.3641 20.6735 1.49221 
26257 0 5 12.428 22.0882 5.07101 
12851 0 5 14.604 19.5428 9.65309 
1612 0 5 13.339 17.2586 16.6779 
4807 0 5 16.2835 17.0034 18.5161 
20938 0 5 12.5319 19.1259 18.4917 
20674 0 5 12.435 17.7506 19.9887 
21228 0 5 13.0637 21.7307 20.2932 
6589 0 5 14.0413 17.7448 22.1309 
20623 0 5 14.8954 18.455 22.4194 
17937 0 5 15.116 19.4107 20.8723 
9050 0 5 16.9854 20.3299 21.4457 
19472 0 5 15.4988 18.9349 27.5176 
10596 0 5 14.189 17.9456 28.9243 
18619 0 5 15.9368 22.1286 28.0382 
11897 0 5 12.0089 19.5069 32.8733 
24030 0 5 15.5625 22.5075 3.24792 
16507 0 5 13.0516 24.4632 4.17213 
25135 0 5 15.7085 25.9044 2.7307 
16906 0 5 15.1761 27.0027 4.05315 
10598 0 5 15.9156 27.0499 3.03926 
17880 0 5 15.538 25.0055 5.62287 
15298 0 5 15.8183 25.1955 9.25058 
17187 0 5 16.1169 27.576 8.17214 
11829 0 5 15.1318 27.3442 11.1485 
4591 0 5 13.5189 23.4257 15.1386 
4387 0 5 12.957 25.069 14.3875 
19993 0 5 15.0439 26.6606 13.9196 
20338 0 5 12.082 24.6086 18.8812 
9244 0 5 16.0107 24.696 19.4176 
19127 0 5 16.7084 25.4799 22.506 
710 0 5 15.4483 22.6116 24.5655 
1289 0 5 12.4935 25.4279 27.1585 
23890 0 5 13.8143 24.3659 26.6031 
11625 0 5 16.7522 25.6122 27.7689 
9149 0 5 11.9974 22.8773 28.2511 
2173 0 5 14.0411 27.5539 29.6245 
25903 0 5 13.6186 25.4635 31.7238 
10935 0 5 15.3935 28.2131 3.60519 
21723 0 5 15.5288 30.9949 3.77401 
7519 0 5 14.2038 32.9508 2.95129 
25890 0 5 15.5658 31.9786 4.14647 
18512 0 5 14.0796 32.5551 5.14361 
22540 0 5 16.4552 32.6668 5.34445 
4221 0 5 15.4329 32.999 6.08999 
21107 0 5 14.2565 28.5721 7.3087 
4501 0 5 16.7552 30.8296 6.62736 
3900 0 5 12.1923 29.4329 10.4013 
21772 0 5 11.8461 32.3469 11.3108 
9134 0 5 12.0965 28.0362 17.3485 
21696 0 5 14.258 28.1943 17.0845 
14149 0 5 16.4078 32.8956 19.0708 
24530 0 5 12.2485 28.2201 22.2337 
17552 0 5 15.6953 30.9871 21.8701 
15467 0 5 15.6339 29.2356 22.8272 
18037 0 5 15.9605 31.8792 23.4922 
17388 0 5 14.6359 31.3159 25.2938 
4091 0 5 12.3386 31.7749 25.3457 
25458 0 5 15.4817 32.5389 25.0987 
24747 0 5 15.458 28.9376 27.5096 
9038 0 5 11.6691 30.5968 26.6739 
9848 0 5 12.7111 30.0161 27.4537 
21716 0 5 15.5478 30.1729 27.3325 
25906 0 5 12.468 28.0041 28.0708 
2436 0 5 15.3155 31.4025 29.4882 
23128 0 5 15.0704 32.1111 28.6718 
402 0 5 14.3604 31.6519 29.1694 
22653 0 5 12.5766 30.0219 30.0125 
147 0 5 16.1894 31.6205 31.1256 
234 0 5 12.0952 28.6416 31.7202 
4329 0 5 20.7037 3.15655 2.86709 
1071 0 5 20.3635 2.81633 5.23986 
7752 0 5 17.2702 6.08976 5.91336 
4303 0 5 17.2375 3.93067 7.87445 
1069 0 5 21.9804 1.78465 9.51404 
24738 0 5 20.9726 4.17852 8.90212 
1464 0 5 18.9593 2.15239 13.7989 
1634 0 5 18.5745 5.78927 13.6438 
14671 0 5 20.5213 5.89973 15.365 
23417 0 5 21.327 4.33981 19.6234 
1423 0 5 19.8985 5.43622 19.6463 
10634 0 5 22.4175 5.01082 19.472 
22637 0 5 19.5134 4.10405 21.8913 
10418 0 5 21.7891 2.81234 24.7795 
10502 0 5 18.3931 2.10792 29.0436 
15889 0 5 21.7699 0.740914 31.0414 
26229 0 5 18.4224 3.76786 29.8341 
26550 0 5 21.36 3.47368 30.5539 
12106 0 5 21.3601 5.39686 31.1818 
7299 0 5 20.4451 1.84939 32.2067 
18953 0 5 19.5503 9.5333 1.42063 
579 0 5 21.1927 8.51721 3.35991 
5590 0 5 21.4543 11.479 2.73582 
1175 0 5 18.6902 9.2883 4.49535 
1771 0 5 19.1371 7.62437 7.77168 
14818 0 5 19.1833 8.11018 6.4858 
5344 0 5 20.3482 9.07181 6.56015 
4618 0 5 18.4039 9.33377 9.42884 
13386 0 5 17.4227 9.85202 9.78118 
2893 0 5 19.687 11.5184 14.2123 
11900 0 5 22.163 11.4647 14.8225 
900 0 5 21.9089 10.4624 14.2837 
8338 0 5 18.2064 7.57278 17.8804 
2857 0 5 20.7126 6.43821 18.1262 
18902 0 5 19.3966 8.87913 17.041 
19685 0 5 22.2213 10.6533 19.1656 
11065 0 5 21.8147 7.44041 23.4668 
16905 0 5 21.2619 6.6067 24.4037 
22405 0 5 21.6418 8.73156 24.7859 
11574 0 5 21.4172 10.7088 26.0122 
10660 0 5 20.819 8.53925 27.2669 
2944 0 5 17.6088 8.09173 32.2566 
17994 0 5 21.3694 11.3412 33.1151 
24627 0 5 17.6632 11.9087 2.26929 
20922 0 5 18.9395 14.7709 3.11922 
8919 0 5 20.2229 15.8563 3.80083 
17380 0 5 17.4533 13.6392 5.14377 
12832 0 5 18.9461 15.1503 6.62863 
5174 0 5 18.1895 12.6658 16.4269 
2401 0 5 20.3356 15.389 15.5679 
696 0 5 19.2442 15.082 17.4258 
9138 0 5 19.8201 16.1104 20.3174 
23695 0 5 19.3188 16.5407 19.3828 
2886 0 5 18.605 14.6841 20.9749 
509 0 5 18.058 15.4545 21.5926 
767 0 5 17.692 12.3835 25.6147 
9269 0 5 21.953 12.641 25.3344 
11478 0 5 20.2656 14.5308 24.36 
7178 0 5 21.2758 14.3818 24.4211 
8454 0 5 19.408 16.1573 25.2642 
10306 0 5 20.024 11.7083 27.1296 
12416 0 5 18.9087 12.5356 28.8502 
25536 0 5 19.9736 11.7006 29.164 
17661 0 5 22.0374 16.8583 31.2336 
771 0 5 21.0729 16.3129 31.0486 
14658 0 5 19.3394 13.9028 32.9655 
8312 0 5 20.0118 17.0367 2.18837 
26532 0 5 20.1665 17.0801 1.05787 
13024 0 5 19.3799 19.9184 5.81585 
5422 0 5 18.3873 17.5537 8.94502 
11724 0 5 20.4344 19.4047 8.55962 
12919 0 5 22.2661 20.4877 8.72827 
5706 0 5 22.2049 22.3635 9.65774 
17990 0 5 18.0731 20.1892 14.1175 
20238 0 5 19.2336 19.6994 16.4251 
1933 0 5 21.6531 18.3254 20.1108 
20964 0 5 21.4756 19.3872 19.8367 
391 0 5 17.8482 17.4574 20.6344 
12575 0 5 20.1772 20.1356 20.944 
8964 0 5 20.7135 22.0535 21.4831 
26923 0 5 20.4943 20.5714 23.2406 
17877 0 5 21.7529 21.9792 24.0166 
411 0 5 20.7414 20.4549 24.4046 
8389 0 5 21.7117 21.4804 24.9526 
4316 0 5 17.848 17.5239 27.3321 
3751 0 5 21.383 21.6408 29.1737 
2884 0 5 19.3617 18.4233 31.2915 
24245 0 5 22.2302 22.3722 31.3476 
24608 0 5 19.4075 22.4644 1.05027 
13084 0 5 19.4082 23.6594 0.925768 
22568 0 5 21.3977 23.9068 1.38323 
15890 0 5 21.8968 24.4859 2.32847 
8774 0 5 18.6353 24.2069 2.63781 
2245 0 5 17.1421 25.3255 5.29708 
6196 0 5 18.306 27.2932 4.63418 
13746 0 5 17.7001 24.8859 7.8862 
23686 0 5 19.5632 22.584 8.43301 
15182 0 5 21.9493 22.7979 8.5058 
18474 0 5 21.4576 27.059 8.01339 
13517 0 5 20.7489 25.7134 12.2158 
25899 0 5 17.5583 27.5344 13.0657 
2349 0 5 21.0342 26.6898 11.8979 
9484 0 5 18.4829 24.6236 14.2613 
23542 0 5 21.676 27.699 14.5554 
4601 0 5 17.1144 24.9921 15.9103 
192 0 5 17.3991 22.7628 21.7523 
15333 0 5 17.4148 24.7053 22.9168 
994 0 5 19.4859 24.3178 24.2485 
5683 0 5 18.9814 22.8103 28.5066 
21199 0 5 18.9856 23.5916 31.4415 
18148 0 5 18.5551 24.5552 30.4286 
14457 0 5 20.9133 23.3638 32.4561 
12632 0 5 21.8961 25.0642 31.8165 
16558 0 5 20.5863 26.655 33.1209 
14142 0 5 21.9442 31.5451 1.20406 
18338 0 5 21.6052 28.6277 4.22238 
23435 0 5 21.3604 31.2742 2.8529 
8070 0 5 19.4045 28.09 8.9683 
8194 0 5 21.6268 31.0738 7.99969 
12272 0 5 17.5554 28.2215 11.5224 
6867 0 5 20.666 29.7841 12.1381 
13497 0 5 21.7614 32.8468 11.9345 
26209 0 5 18.8655 29.7811 14.587 
20009 0 5 19.0328 28.3301 15.6477 
26830 0 5 21.3468 29.1735 15.7547 
8556 0 5 20.783 32.9734 16.2804 
14708 0 5 18.1146 28.4014 19.4014 
24993 0 5 21.7085 28.8718 19.9036 
8463 0 5 22.3925 30.7162 19.6562 
20103 0 5 20.7525 29.2094 21.3219 
7669 0 5 18.6304 30.845 23.4643 
2227 0 5 21.8509 30.2366 22.9042 
12024 0 5 20.7354 30.4503 24.9548 
25450 0 5 19.7172 32.0438 24.8267 
5521 0 5 21.6828 31.3463 27.4874 
4762 0 5 20.9864 32.3543 26.3409 
8880 0 5 18.4325 30.8957 28.3707 
14291 0 5 18.344 28.3052 30.6319 
15114 0 5 17.9941 30.3356 30.1147 
5247 0 5 19.2714 32.0753 30.2214 
22773 0 5 20.67 31.979 30.598 
4313 0 5 20.8915 28.2932 31.5114 
3106 0 5 20.5273 32.4219 32.4918 
17239 0 5 19.1447 32.9118 32.9791 
16423 0 5 22.9361 1.12287 1.0218 
640 0 5 26.7225 2.31636 1.68822 
25150 0 5 26.3663 5.32244 0.85183 
4368 0 5 26.1817 2.23194 4.1838 
16914 0 5 26.668 2.5365 7.24812 
19325 0 5 27.5408 0.943597 7.168 
20965 0 5 22.4637 3.92094 9.13318 
21851 0 5 23.6159 6.06204 8.56292 
13820 0 5 25.2749 2.27982 11.9687 
9502 0 5 22.563 1.76687 16.1533 
14131 0 5 25.4167 3.89852 15.4423 
256 0 5 25.2331 3.03592 16.9432 
15107 0 5 23.9018 5.52359 17.1906 
24333 0 5 25.547 2.57367 20.3931 
26414 0 5 27.5012 4.46835 18.944 
6949 0 5 26.6372 2.20265 20.7787 
6653 0 5 25.9373 1.13446 23.4202 
5678 0 5 22.5723 3.27047 22.8036 
26278 0 5 27.2732 5.93477 23.1472 
24821 0 5 22.7277 2.73384 27.0328 
10550 0 5 23.2271 5.9021 26.374 
21792 0 5 24.6019 1.48753 29.5291 
11638 0 5 23.0394 3.38379 31.4059 
3043 0 5 25.1085 3.92087 29.9813 
7240 0 5 26.4557 2.75918 29.8036 
2646 0 5 23.1698 2.21308 31.532 
5737 0 5 24.6575 2.72065 33.2148 
10399 0 5 24.8879 4.78289 31.5402 
22209 0 5 26.9769 5.18223 32.1944 
22859 0 5 27.5302 11.2661 1.62707 
26018 0 5 23.5478 9.68592 5.07433 
7992 0 5 24.7419 8.94017 6.13384 
16930 0 5 23.8634 11.4429 5.87312 
9131 0 5 26.9197 8.66675 7.65678 
15218 0 5 27.6108 10.7077 7.8919 
22713 0 5 24.0831 10.5662 9.72253 
2870 0 5 24.6572 11.1608 9.16861 
3291 0 5 24.806 6.46506 10.0966 
11932 0 5 27.6147 11.1245 12.9297 
17165 0 5 26.6969 7.63623 13.8061 
20910 0 5 25.8942 8.49716 14.098 
26719 0 5 26.2345 9.55847 14.0029 
23457 0 5 27.8388 10.4444 14.9284 
19910 0 5 26.5766 6.80962 17.0578 
16849 0 5 24.1379 7.40346 21.4734 
1880 0 5 22.9238 8.70765 22.2516 
13191 0 5 22.7565 10.7179 22.1388 
15897 0 5 22.7457 7.17336 24.0017 
4773 0 5 24.48 7.35909 22.5003 
2939 0 5 23.6814 8.7674 22.8479 
24922 0 5 24.4584 6.97713 24.2894 
24983 0 5 22.5298 8.97065 25.6282 
12810 0 5 23.3143 11.1073 26.5694 
11741 0 5 27.0367 9.5511 29.4205 
12555 0 5 24.4115 11.5129 29.2173 
16049 0 5 25.4466 7.01514 31.8362 
3715 0 5 23.6759 8.62934 32.719 
17576 0 5 26.38 14.6095 2.07224 
2934 0 5 22.879 15.516 1.69655 
11018 0 5 26.4403 16.3973 1.23426 
5586 0 5 27.5848 16.7806 1.3695 
24652 0 5 27.2379 14.9384 3.50111 
9150 0 5 26.5566 16.6576 3.58221 
25214 0 5 27.6222 16.6457 2.72058 
268 0 5 27.0014 13.2605 7.281 
24814 0 5 23.7569 16.9162 6.71518 
14004 0 5 23.2163 15.9263 11.7549 
6931 0 5 23.7732 11.9229 15.1542 
6982 0 5 25.9084 12.2745 14.7971 
24036 0 5 22.4292 11.5918 16.3097 
18441 0 5 25.2367 15.6297 15.3115 
21550 0 5 23.7399 14.6945 17.2227 
785 0 5 23.3275 16.4556 18.6721 
26788 0 5 24.2063 15.8206 19.5986 
9916 0 5 24.5433 12.3119 21.9365 
10234 0 5 26.1655 16.012 22.0415 
21645 0 5 27.1042 14.5225 22.9154 
6832 0 5 26.8627 16.9509 24.9705 
24024 0 5 23.7228 14.9761 27.3911 
10300 0 5 22.9701 16.6557 27.9831 
23815 0 5 23.543 11.7973 29.8881 
9535 0 5 25.5873 14.9794 32.0848 
12069 0 5 26.257 13.8747 32.0742 
24114 0 5 25.8468 21.7192 0.81021 
4300 0 5 27.5063 18.9865 3.89178 
20086 0 5 22.7846 21.4943 6.02449 
3708 0 5 26.0079 21.7361 7.16829 
23725 0 5 27.6315 19.6277 8.51322 
20792 0 5 25.7794 21.6125 8.90745 
5537 0 5 26.7135 21.8685 9.51203 
8024 0 5 27.7702 17.2602 11.9865 
21494 0 5 24.2396 20.7716 13.9756 
25456 0 5 24.8868 17.6767 16.7438 
344 0 5 27.2375 17.7071 15.7584 
19465 0 5 23.9682 19.312 16.4452 
22173 0 5 26.9433 20.2013 16.1953 
16017 0 5 26.274 19.2051 16.5037 
26894 0 5 23.6112 21.0125 16.6065 
22749 0 5 24.4002 19.2193 19.5481 
9446 0 5 27.374 17.7411 21.0143 
2320 0 5 25.5622 17.6339 25.0184 
3908 0 5 25.2876 18.3891 25.9066 
7567 0 5 23.3132 19.2664 25.3934 
773 0 5 27.7339 17.8668 26.8664 
4182 0 5 25.1721 20.5119 29.9781 
1079 0 5 22.7657 23.5698 3.70174 
2286 0 5 25.5063 23.594 3.84577 
12336 0 5 27.3125 23.141 4.27414 
19823 0 5 25.0236 25.6475 3.83791 
7800 0 5 24.1095 26.7055 5.11582 
16635 0 5 25.3152 27.6609 4.46404 
25981 0 5 27.778 26.0705 9.70594 
14343 0 5 25.9782 25.167 11.2787 
761 0 5 24.6356 26.6429 11.04 
7805 0 5 23.0751 26.2862 13.069 
23164 0 5 27.6669 26.0441 13.335 
4327 0 5 25.0146 24.1408 13.8458 
20795 0 5 26.559 24.83 14.4201 
24878 0 5 27.5021 25.6144 17.5075 
13697 0 5 24.9186 25.8795 18.8703 
16536 0 5 22.7091 27.8267 18.9335 
15904 0 5 26.7955 26.8762 19.631 
15235 0 5 25.5736 23.2076 22.2661 
2942 0 5 27.8192 26.6517 22.3661 
4137 0 5 26.4162 23.0973 23.9636 
15863 0 5 27.8197 23.4564 22.5688 
7028 0 5 24.9279 26.3908 23.5365 
25009 0 5 24.0144 24.3186 25.5399 
15299 0 5 24.4569 25.1178 25.1233 
5402 0 5 26.3043 26.1531 27.2984 
4351 0 5 24.4785 23.5923 29.0724 
4472 0 5 22.6248 27.5136 29.1644 
9805 0 5 22.7395 22.6449 32.7471 
15476 0 5 27.6963 29.6886 1.85033 
18666 0 5 27.3231 30.6977 1.6861 
8251 0 5 24.1867 31.8107 1.27186 
6375 0 5 27.7185 31.77 1.11727 
20916 0 5 25.3349 28.4683 6.92528 
8382 0 5 27.0446 30.1272 9.63197 
7515 0 5 23.8002 32.5287 8.94231 
20442 0 5 22.8677 31.6064 8.73627 
18472 0 5 23.0093 31.284 11.3106 
15814 0 5 23.1331 32.9072 9.87555 
16694 0 5 23.4274 27.8666 13.3545 
17282 0 5 23.8197 28.6094 12.1248 
11695 0 5 23.5147 31.6995 12.6115 
8469 0 5 23.1803 32.7692 12.7484 
8777 0 5 27.2207 28.4438 14.6791 
24172 0 5 26.3435 28.0618 15.0246 
15301 0 5 22.923 28.8587 16.6064 
18471 0 5 27.7138 28.4102 16.4074 
8062 0 5 26.0377 31.8034 15.9508 
25197 0 5 23.3064 32.1238 20.5002 
26395 0 5 27.4749 28.2227 22.0959 
9047 0 5 26.9463 30.3919 20.692 
16172 0 5 27.2279 28.9815 22.7166 
26661 0 5 26.1599 30.1598 23.2055 
13646 0 5 22.6125 30.1838 25.8366 
507 0 5 25.4983 29.9989 25.1539 
22706 0 5 23.2531 32.6389 25.3167 
15919 0 5 26.5126 30.6826 27.2663 
19840 0 5 27.6042 30.2818 27.1005 
16918 0 5 27.3242 28.8002 29.719 
5167 0 5 27.6116 31.8757 31.4231 
3085 0 5 23.9452 31.5379 31.7677 
2869 0 5 32.9348 1.26989 0.852464 
7085 0 5 31.4939 1.06294 3.2882 
24056 0 5 29.1643 5.61786 5.81944 
5946 0 5 29.4893 2.18832 7.93491 
9851 0 5 29.3827 3.58628 6.89136 
11581 0 5 32.1209 3.4914 6.20597 
3886 0 5 29.7461 1.61278 10.1559 
13529 0 5 29.8018 1.39844 11.4232 
949 0 5 28.5226 2.88708 14.3488 
8633 0 5 29.3617 5.11274 15.1374 
17901 0 5 32.8832 0.801253 16.5978 
11576 0 5 32.7308 3.25077 18.7918 
8839 0 5 32.2971 1.53531 20.5599 
12660 0 5 30.8737 3.87295 19.0991 
4170 0 5 28.6149 4.96261 19.3819 
6296 0 5 29.7975 6.12155 20.9388 
20687 0 5 32.7026 4.52001 22.5471 
7292 0 5 30.0362 1.32713 24.4227 
21195 0 5 28.8236 3.7332 25.0813 
14862 0 5 32.9567 3.14005 26.1577 
1929 0 5 31.7516 1.80868 28.7186 
5948 0 5 28.6997 3.78753 29.454 
6563 0 5 29.3639 4.52408 28.6695 
24336 0 5 32.0612 5.13708 29.008 
12673 0 5 32.0928 1.75725 31.4029 
2211 0 5 31.1421 3.38937 30.724 
19028 0 5 29.6633 2.33751 31.5274 
3541 0 5 31.2439 4.37524 32.8056 
15711 0 5 28.3447 9.68391 1.47509 
8290 0 5 31.8754 11.3573 0.920579 
1644 0 5 28.1004 7.08162 3.68495 
4350 0 5 31.5921 6.19383 3.66967 
4519 0 5 29.4782 7.53381 5.52728 
3988 0 5 33.0536 8.65397 4.59024 
26231 0 5 30.6994 6.47918 8.2213 
14027 0 5 31.4119 11.1534 8.08882 
20675 0 5 30.3061 11.5144 8.62888 
6691 0 5 29.1564 7.81742 9.77591 
23713 0 5 32.7948 7.35532 17.4151 
2220 0 5 28.0149 6.92332 19.364 
6543 0 5 29.3448 10.2061 19.682 
10581 0 5 28.2867 10.0301 19.3428 
17578 0 5 28.4246 6.34114 21.361 
9351 0 5 27.9481 6.916 22.1073 
8294 0 5 31.7581 10.5337 23.1121 
10916 0 5 33.1522 8.43714 25.9346 
17120 0 5 30.5543 10.5456 24.5854 
26939 0 5 33.1461 9.60604 26.301 
530 0 5 28.2056 7.6979 28.9283 
4013 0 5 29.5418 8.40102 28.8405 
23964 0 5 28.1253 10.6853 31.9685 
6935 0 5 30.4961 11.3192 31.9759 
10681 0 5 30.982 11.7662 1.80437 
3586 0 5 32.0647 11.7844 2.27252 
20420 0 5 31.3549 13.2554 6.1028 
23693 0 5 28.2358 13.5396 4.60936 
2200 0 5 32.37 13.6795 6.07303 
23107 0 5 29.0848 13.3277 7.72562 
17676 0 5 29.1986 16.5172 6.7242 
15120 0 5 30.227 16.3569 6.20249 
407 0 5 29.4669 13.7531 8.59808 
22042 0 5 31.0127 16.6779 8.29376 
15858 0 5 28.8693 14.186 10.5591 
18395 0 5 30.1088 16.9482 10.1425 
5750 0 5 30.0334 16.7488 11.1091 
7739 0 5 28.4482 14.6171 11.6843 
23449 0 5 32.7553 15.9272 13.3292 
19596 0 5 32.3351 11.8986 14.5849 
19694 0 5 31.5148 16.3391 14.5007 
25800 0 5 32.5445 12.8608 15.8875 
18519 0 5 32.6296 16.5144 16.2102 
11078 0 5 32.1537 13.5145 17.5734 
21255 0 5 32.3494 15.1577 18.8876 
12288 0 5 31.1469 15.4833 20.718 
6112 0 5 30.3938 16.517 21.3407 
15671 0 5 31.2101 12.7248 22.4372 
9281 0 5 28.9691 16.8307 23.7441 
16530 0 5 30.7901 11.6419 24.8065 
7521 0 5 31.7448 12.2768 25.2494 
16868 0 5 29.5192 14.3925 26.0147 
7588 0 5 28.1864 16.006 25.6257 
3774 0 5 30.6932 11.7364 27.132 
24542 0 5 29.0737 15.0284 26.6468 
3753 0 5 31.6557 12.8228 28.6628 
13448 0 5 29.6262 14.0305 31.5003 
14396 0 5 29.5173 16.0166 32.8905 
23168 0 5 31.5373 18.4341 3.43193 