9000
Atoms. Timestep: 0
N 1.231370 1.083080 1.410210
N 0.714170 1.816840 1.103780
N 2.137730 2.340320 1.062210
N 0.616878 0.961256 0.647314
N 1.210430 2.706370 0.911142
N 1.220470 3.148820 1.770710
N 0.987648 5.960720 1.894520
N 1.800570 5.831700 1.428420
N 1.241000 1.073710 2.529170
N 0.885789 2.237090 3.242540
N 1.791000 2.041020 3.113350
N 2.154510 0.851670 3.332630
N 2.623100 1.676070 3.238380
N 1.280080 2.927430 2.756910
N 0.819461 6.007360 2.815590
N 1.150820 4.387960 26.272000
N 0.715964 3.601370 30.957600
N 0.714949 4.482420 31.219600
N 1.095810 3.730070 31.790100
N 1.043490 3.533170 32.717700
N 1.999610 2.982340 33.194000
N 1.454750 2.667060 32.474500
N 0.927138 5.552990 31.650500
N 1.554110 6.628800 0.780303
N 2.269910 6.055410 0.614071
N 0.787788 6.851980 2.386830
N 0.790711 9.035220 4.645490
N 0.602719 7.213310 32.240300
N 0.930879 6.471380 32.760600
N 1.423130 7.396510 33.168300
N 1.623260 33.108700 0.636729
N 1.090460 32.557300 1.193420
N 1.151580 31.663300 1.588300
N 1.665410 33.295100 1.931520
N 1.284340 33.413000 3.375650
N 0.576879 31.032500 27.075700
N 0.814388 32.788100 33.065800
N 0.999572 33.417300 32.412300
N 27.643300 3.717340 1.638790
N 26.938200 3.384710 2.175650
N 27.217000 2.426120 2.287260
N 27.886400 4.658030 1.837140
N 27.689000 1.802700 2.856160
N 27.941200 3.775340 2.620860
N 26.883100 2.930710 3.017780
N 31.617900 1.348830 1.410620
N 32.699300 1.064360 1.238710
N 32.608700 1.928610 0.677640
N 28.261700 3.112320 1.147700
N 29.000400 3.727470 1.178410
N 28.670800 4.168890 2.183050
N 28.678400 4.638660 1.133050
N 28.534600 2.093520 3.037030
N 27.966700 2.868370 2.933240
N 29.201300 5.108510 2.629500
N 29.126800 6.021100 2.838240
N 28.179200 5.255570 2.501060
N 28.515400 5.526590 3.383820
N 29.265600 4.933040 3.984590
N 29.812300 5.414230 3.395890
N 29.026800 3.973060 4.373620
N 29.173600 4.684500 4.927900
N 30.581000 1.100690 24.552600
N 30.440000 1.793770 25.251800
N 30.449700 2.743560 25.490100
N 30.951700 3.049600 24.688300
N 32.098900 4.118510 26.015000
N 31.882100 3.203050 24.388200
N 31.805500 2.777590 25.215300
N 32.215300 3.180330 26.127200
N 31.700600 2.411640 26.136100
N 32.664800 4.641090 26.592800
N 33.413600 4.254010 27.009100
N 31.443800 2.020040 30.890300
N 30.588400 2.118130 31.530800
N 29.252100 3.485870 31.418200
N 31.067900 3.154370 31.576500
N 31.634700 2.940540 30.476700
N 31.641000 3.814290 30.934200
N 29.300700 5.613000 31.485300
N 30.884300 4.278100 31.314200
N 30.063700 5.095210 31.503500
N 30.186500 1.867540 32.405900
N 31.509100 1.998860 31.873100
N 31.539500 1.277860 33.287800
N 32.414000 0.928829 33.184000
N 32.931500 0.840221 32.288200
N 33.187100 1.637870 32.787600
N 32.159500 1.862010 32.646000
N 28.851200 3.818970 32.960900
N 28.653800 3.910020 32.024600
N 30.297600 2.904980 32.113900
N 30.988000 3.976430 32.397400
N 31.353200 3.141410 32.526900
N 30.166400 3.782320 31.600800
N 32.750100 4.098510 31.602200
N 31.987300 3.894860 32.127800
N 28.591800 4.717260 33.054000
N 29.996700 5.833960 32.336000
N 30.821800 5.032420 32.122000
N 33.375500 5.616530 32.573600
N 30.091700 7.605950 1.124670
N 30.565300 6.934710 1.704010
N 29.933900 6.427260 1.135270
N 29.157000 7.949170 1.290260
N 29.643900 7.953550 2.120910
N 29.454600 8.814250 1.564520
N 30.074600 8.633500 0.846458
N 30.867300 8.068000 0.915175
N 29.403600 8.594140 2.778710
N 30.413900 8.649850 2.908210
N 29.957500 9.391860 2.477930
N 30.227800 10.008100 3.742030
N 30.652800 9.904720 2.915760
N 31.303100 9.919670 3.980410
N 31.172700 10.751000 3.584270
N 32.898500 10.201200 3.718450
N 32.053800 10.430000 3.322490
N 30.896500 9.981650 4.886380
N 30.006100 10.278100 4.674870
N 33.372800 9.971140 4.544910
N 29.465900 6.608510 31.479100
N 32.657100 7.109960 31.534000
N 29.565600 6.882390 32.413400
N 30.141600 6.346230 33.073000
N 30.200200 7.370030 31.876500
N 30.586000 6.526220 32.134100
N 33.117200 6.323280 31.638600
N 33.340300 7.596070 33.118100
N 32.559200 9.547100 32.505700
N 32.822300 8.098130 31.675100
N 32.340100 8.632800 32.252100
N 31.317800 11.419700 32.061500
N 31.962200 11.524700 32.750500
N 32.459900 11.289300 31.941200
N 32.667500 10.354900 31.910000
N 30.570900 13.234500 29.546400
N 31.239600 13.890800 29.536900
N 31.300500 12.937500 30.033300
N 31.099200 12.447600 31.028500
N 31.723300 11.760900 31.257100
N 31.826300 13.085500 30.767600
N 32.042700 13.861600 30.059100
N 32.943000 14.080100 30.184900
N 32.783200 14.677600 30.979200
N 30.590500 29.064500 2.033650
N 32.181900 28.041800 1.506770
N 32.753000 29.001700 1.245670
N 32.448600 29.707900 1.768190
N 32.710900 28.262100 0.688384
N 30.777500 29.829300 1.482410
N 31.030500 30.728300 1.608950
N 31.571200 29.975300 2.158140
N 31.571100 31.161900 2.263030
N 32.220400 30.798600 1.688300
N 33.059000 31.825800 1.806530
N 32.581800 32.587000 2.230100
N 31.056000 29.261100 2.843690
N 31.731900 29.188800 3.502610
N 32.146400 29.778500 2.857030
N 32.736700 30.843900 2.434560
N 32.687400 31.727600 2.786120
N 32.794100 32.603500 3.126230
N 29.660200 33.149400 24.117800
N 30.584900 33.103300 24.087100
N 31.556100 31.518100 26.013800
N 31.371300 31.732000 25.123200
N 30.549600 32.109000 25.328000
N 30.108300 32.655000 25.934200
N 29.931900 32.875600 25.025400
N 30.726400 30.598200 27.943200
N 31.689500 30.841300 27.920200
N 32.460200 30.826300 27.206600
N 30.745500 31.765100 27.721100
N 31.406900 31.790700 27.008500
N 29.832800 31.541200 28.036800
N 30.047400 30.464700 28.538600
N 30.521400 31.304200 28.678900
N 32.306800 30.141900 28.313600
N 33.022400 30.618400 27.972000
C 4.220440 1.481290 2.207560
C 3.467660 0.954941 1.920330
C 5.475440 1.996470 0.930932
C 4.980650 1.751770 1.748880
C 2.232390 2.674260 2.287690
C 5.656750 3.077880 1.306070
C 5.635800 3.988760 0.925840
C 1.487310 4.237650 2.150000
C 2.468370 4.626250 2.290980
C 3.511880 2.177960 3.035210
C 3.520620 1.197120 2.878660
C 0.653880 3.439420 3.546450
C 2.014630 3.514040 2.521280
C 1.586050 3.609730 3.737270
C 0.807697 3.878670 2.659150
C 3.594580 3.115380 3.155140
C 2.681850 2.832690 3.103570
C 2.783480 3.882680 3.568480
C 3.068570 3.894720 2.689520
C 1.897470 4.516940 3.137960
C 2.000650 4.482040 4.038640
C 3.516010 5.217490 4.211540
C 2.008020 3.802910 5.391200
C 2.315330 3.502250 4.379950
C 4.160720 2.468620 5.872500
C 3.573800 3.906400 5.771700
C 1.488520 4.334890 4.825700
C 4.046760 4.834630 5.354590
C 3.302260 4.328390 4.475920
C 3.097550 4.726440 5.319680
C 1.910320 1.649580 7.198570
C 2.469610 0.696545 7.213830
C 3.839030 0.827341 7.168080
C 2.499330 1.419120 7.846470
C 4.976110 2.244610 6.399480
C 2.158440 2.592460 7.376360
C 1.746590 3.846420 6.808980
C 0.658452 3.730360 7.086560
C 2.293260 3.404080 6.150090
C 0.878927 3.537310 6.182650
C 2.798560 3.530610 7.233030
C 3.600840 4.102930 6.665240
C 4.089480 3.595160 7.554970
C 3.603270 2.778640 7.672340
C 4.223330 3.368330 6.201250
C 4.273880 2.699560 6.978650
C 3.261220 4.235740 7.681320
C 3.789550 5.074320 7.676200
C 3.103710 4.880390 6.977960
C 3.713090 5.033620 6.221340
C 5.247230 1.502170 8.702730
C 4.966680 1.093930 9.499410
C 4.536670 1.155510 8.163730
C 2.556050 3.050100 8.066760
C 4.373100 4.435820 8.047180
C 3.794450 3.801400 10.983400
C 4.049210 5.088800 10.562800
C 3.347770 5.711720 10.821000
C 4.335030 4.531710 11.282600
C 1.932830 3.626200 12.255400
C 2.385580 2.929200 12.643900
C 1.054310 4.068600 12.218500
C 1.397910 4.064530 13.167500
C 4.075990 3.799430 12.509400
C 2.983600 3.674400 12.701100
C 4.333680 3.391870 11.696500
C 2.628660 4.535880 12.676500
C 3.982730 4.697600 12.303200
C 3.268230 5.229670 12.661700
C 3.074830 6.029840 11.731900
C 3.917490 5.640070 11.839700
C 2.223990 1.777050 14.188400
C 3.516990 1.256290 13.993900
C 2.953700 2.000030 13.652300
C 4.343610 1.214010 14.505500
C 2.313130 3.881890 13.477500
C 2.904300 3.267160 13.998600
C 2.642840 2.544520 14.531000
C 1.856460 6.679620 7.443280
C 1.293290 7.611270 6.781590
C 1.368060 7.475820 7.712260
C 0.967365 8.416740 7.109630
C 4.268760 8.080380 7.824190
C 4.208260 7.506960 8.785390
C 5.068540 7.210220 9.054540
C 3.515100 8.035840 8.429440
C 4.040910 7.965260 9.582400
C 5.098540 8.215250 8.329860
C 5.079620 8.028990 9.509020
C 4.334420 7.096610 9.832290
C 4.998560 6.303820 9.713100
C 5.405700 7.260450 10.060000
C 5.168360 6.533970 10.680000
C 3.837740 8.189350 10.474000
C 5.564290 8.964790 11.011900
C 4.633660 8.348010 10.935000
C 5.813980 8.256160 10.404300
C 6.021900 7.909140 11.395600
C 4.587600 6.261490 11.585200
C 5.492290 6.253730 11.822100
C 6.043510 6.137710 12.694500
C 5.126900 8.378010 11.754600
C 4.905620 16.299500 4.240420
C 3.078050 14.783800 12.755200
C 5.554340 15.097200 13.294900
C 3.969980 15.198900 12.709100
C 4.109070 16.482000 13.287200
C 4.116300 16.034900 12.263100
C 2.599910 15.496200 13.141400
C 2.418410 16.388500 12.737000
C 5.573120 15.641900 12.517100
C 4.699060 15.799900 12.973800
C 5.779970 16.280300 13.216900
C 5.073350 14.747100 14.568700
C 4.787380 16.274000 15.027900
C 4.871870 15.377200 13.913700
C 4.927440 16.428300 13.810200
C 5.950680 15.823300 14.170800
C 2.125380 13.674700 16.593600
C 1.140370 15.109400 15.991600
C 4.181090 14.366600 15.918900
C 4.164780 14.300000 16.907100
C 4.448960 13.515100 16.186900
C 1.165800 15.825000 16.672500
C 1.987080 16.712400 16.033800
C 1.663350 15.843700 15.717400
C 4.123530 16.835700 16.493900
C 3.706080 16.104200 16.989100
C 5.328530 15.343600 15.286500
C 5.028480 16.030600 15.912200
C 1.459190 14.163600 18.070900
C 2.258560 14.536300 17.031700
C 1.323850 13.939800 17.166900
C 1.501130 14.990200 18.633300
C 1.534720 15.102700 17.078900
C 2.267910 15.227800 18.066100
C 4.006290 15.185200 17.293000
C 3.004770 16.909800 17.269900
C 4.994120 16.433100 18.064300
C 4.403290 16.887700 17.444300
C 2.564220 14.764200 18.869600
C 3.224300 14.975200 19.521900
C 3.066010 15.218800 20.427100
C 2.880160 16.079300 19.983300
C 4.750390 21.590300 4.192350
C 5.149130 17.476600 5.344430
C 5.400350 17.287600 4.464160
C 4.496970 17.007600 4.706190
C 5.889910 18.357900 4.506850
C 0.744919 20.334800 5.888530
C 3.329390 22.321700 5.423910
C 5.906070 20.739800 5.185440
C 5.227520 22.366500 4.383480
C 5.595670 21.089700 4.280930
C 5.727310 21.698700 5.208290
C 4.495090 22.311300 5.129960
C 0.707480 20.223400 6.893120
C 0.646782 19.455100 6.405230
C 3.537740 21.499500 9.353660
C 5.652590 22.457500 9.577790
C 4.468430 21.392900 9.337960
C 5.777810 21.246800 9.468850
C 2.252590 18.094400 11.042700
C 1.668980 17.405500 11.433800
C 2.258060 17.038100 10.750500
C 3.071770 17.485900 10.855900
C 4.148360 19.269000 11.013200
C 3.093510 19.182900 10.846800
C 3.397690 19.882900 10.255600
C 2.592090 20.404400 10.698300
C 5.224370 19.916200 11.463700
C 5.036730 18.936500 11.122300
C 4.416110 20.134400 10.993800
C 2.392980 21.074300 11.393900
C 2.135260 21.891900 10.735400
C 3.941420 22.134100 11.459100
C 3.798300 20.731200 10.130800
C 2.893370 21.220500 10.344400
C 3.040800 21.852700 11.173400
C 5.723120 21.716900 10.284100
C 4.792630 22.020200 10.936900
C 4.850310 22.263000 9.973500
C 4.672870 21.158200 10.249900
C 2.030360 17.205400 12.508900
C 2.589230 17.625000 11.848400
C 2.968660 18.662500 11.679000
C 1.462310 20.480500 12.997900
C 2.987090 19.601000 11.850900
C 3.704100 20.152600 11.779400
C 5.714100 18.917000 11.781400
C 4.523810 19.692400 12.037900
C 5.397070 19.510700 12.458000
C 2.250870 20.911700 12.637600
C 2.098100 21.681900 13.301000
C 3.209040 21.465000 12.869200
C 4.119870 21.430200 12.566300
C 3.245310 21.152100 11.792000
C 5.691750 21.694600 12.464500
C 5.498270 20.706800 12.189700
C 4.573840 20.807700 12.020500
C 5.020420 21.875900 11.858500
C 1.804020 17.724700 14.873700
C 1.813400 18.404700 14.235700
C 4.716580 17.101200 14.474000
C 0.797498 19.986200 13.682800
C 1.050500 19.113200 14.585200
C 0.774131 22.474000 14.216500
C 2.137060 21.114200 14.119700
C 2.683450 20.769000 13.433400
C 2.911350 21.765800 13.748400
C 5.977390 21.475200 13.357500
C 1.160320 18.397800 15.179300
C 2.442700 17.284900 16.652500
C 4.446000 17.067000 15.392600
C 1.700380 20.217100 16.679400
C 1.312740 20.354700 15.815100
C 0.865824 21.088600 15.384200
C 1.307950 22.337300 15.351800
C 4.693440 22.357200 16.567900
C 6.015160 20.917600 16.015100
C 5.710720 21.532300 16.712200
C 3.348120 17.511600 17.939200
C 4.181730 17.917000 17.585000
C 4.805280 18.642700 17.612400
C 5.484690 18.172200 18.065800
C 5.492960 17.233000 18.088200
C 2.497300 20.521800 17.105600
C 2.048690 21.183900 17.596800
C 2.728520 21.835600 17.451600
C 5.260880 22.213200 17.410400
C 1.755200 22.373400 19.764100
C 0.838336 22.219200 19.982400
C 6.049240 22.326300 21.824100
C 5.913730 22.408400 22.792900
C 2.772810 23.055100 5.290260
C 3.080490 24.013500 5.498700
C 4.067570 22.890000 5.794060
C 4.053610 23.901300 5.992740
C 4.812160 24.214500 5.530170
C 5.858050 24.053900 5.887920
C 5.572540 24.032200 4.955980
C 2.102430 25.885900 6.047710
C 3.858550 25.902700 5.476880
C 5.793610 25.232300 4.826830
C 3.690550 26.846700 6.014840
C 3.684440 26.688900 4.923610
C 4.605520 26.854000 4.734030
C 5.353090 26.303700 4.413750
C 3.257860 23.450700 6.268100
C 5.287110 23.383800 6.218570
C 1.273760 24.699600 6.837470
C 2.092490 25.108700 6.899570
C 1.344960 25.250800 7.598690
C 3.049800 25.138400 7.060460
C 3.275180 25.749200 6.226200
C 2.846880 24.879100 6.225690
C 4.655150 25.585400 6.553530
C 5.583220 25.184900 7.202100
C 5.546360 25.961400 6.665440
C 1.414760 27.160400 7.309040
C 2.239280 27.221600 6.671750
C 1.121650 27.580200 6.475960
C 1.592110 26.624800 6.361500
C 2.583760 26.206200 6.811060
C 4.037160 27.772800 6.671760
C 3.496780 27.022200 6.938580
C 4.402920 26.510700 6.537680
C 5.316340 23.105200 8.984250
C 5.308860 23.238500 7.883380
C 2.359220 25.429200 9.425520
C 0.760618 24.620500 8.019510
C 5.597560 25.645500 8.047180
C 5.581950 26.087700 9.180750
C 1.188480 27.412800 9.309480
C 1.879640 27.395700 8.514980
C 1.890350 26.239100 9.067350
C 2.226520 27.114900 9.349490
C 2.773410 27.884500 8.673460
C 4.618330 27.064300 9.463260
C 4.670240 27.340200 8.545190
C 4.915250 26.442000 8.620170
C 5.953330 26.919100 8.861700
C 1.685500 22.535900 11.298000
C 1.301080 22.857500 10.262600
C 0.691711 23.727700 10.801000
C 2.230770 22.781600 10.465100
C 1.555470 23.797900 10.312700
C 0.850897 23.085800 11.407800
C 2.526330 22.915600 11.483500
C 5.421800 22.845000 10.586100
C 4.893090 22.848700 11.422400
C 2.139700 24.834600 11.081100
C 1.294250 25.226700 11.209300
C 0.788108 25.986000 11.318700
C 2.120080 24.784600 10.103200
C 3.062650 27.730800 11.065700
C 3.871070 27.328700 10.539400
C 3.210470 26.636200 10.798800
C 2.593200 27.016600 11.441900
C 4.245850 26.542700 10.937600
C 5.013690 27.524400 10.205800
C 4.727470 27.109000 11.483900
C 0.663490 23.941700 12.779800
C 0.663307 22.630100 13.095700
C 1.206860 22.906000 12.299600
C 3.276180 22.479500 12.024200
C 3.218370 23.500100 12.423100
C 4.054380 23.284500 12.004300
C 3.893780 24.228000 12.008800
C 4.785810 24.034900 11.794200
C 1.315590 24.461500 12.057700
C 1.038420 24.840000 12.883500
C 0.874562 25.446500 12.140000
C 1.416300 26.074300 12.604200
C 2.887890 24.334900 12.606600
C 3.088620 26.036700 12.972700
C 4.001870 25.406000 11.870500
C 3.536670 25.269400 12.695500
C 4.874540 25.252400 12.256000
C 5.488940 24.479600 12.272300
C 3.212820 27.278300 12.413000
C 3.748400 27.112600 11.647100
C 2.248190 23.505400 13.784200
C 1.239290 23.451300 14.395600
C 1.373880 23.570600 13.445900
C 1.893190 23.023100 15.016800
C 1.473970 22.549600 13.570700
C 3.577580 22.573900 14.965800
C 3.097360 23.864300 13.465300
C 3.117350 23.267300 14.585200
C 4.036940 23.538000 14.462200
C 5.903820 22.792100 14.916200
C 2.740910 25.819800 14.612700
C 3.429440 26.047000 13.937800
C 3.549600 25.324100 14.934200
C 3.106840 23.103800 15.673200
C 3.344870 23.538100 16.467200
C 3.991470 23.421900 15.408500
C 4.053570 24.117500 16.651600
C 4.610810 23.366000 16.423700
C 4.857030 23.611400 15.251100
C 5.652720 23.326800 15.703300
C 0.693710 27.737500 16.510300
C 1.092920 26.945900 16.832900
C 3.090270 22.726700 17.376000
C 3.937880 23.730900 18.310200
C 3.904820 23.194300 17.372100
C 4.869710 23.060400 17.607800
C 4.430870 22.930500 18.417800
C 0.699517 27.107300 18.056000
C 2.278130 22.592400 18.957900
C 3.742440 23.969600 19.244300
C 3.653880 23.376800 20.289200
C 3.538510 22.476700 20.363000
C 2.803350 22.681900 19.754300
C 5.270070 24.260800 19.951800
C 5.675860 23.592600 20.430000
C 0.962295 22.863100 20.726400
C 4.376210 23.564000 20.928200
C 5.692980 23.209900 21.927100
C 4.786450 24.433500 20.804800
C 5.831710 24.546500 21.018500
C 5.819000 23.856500 22.919900
C 5.660760 23.098300 23.470300
C 4.868270 24.052400 23.047800
C 4.057150 24.371900 22.528900
C 3.586420 32.902700 2.050510
C 5.724230 29.498800 3.437930
C 2.966230 32.467700 2.684140
C 3.137850 33.225100 3.219250
C 0.807771 29.203100 4.736790
C 1.042790 28.314200 5.117740
C 5.822790 29.091100 4.898520
C 1.428080 29.795900 5.207780
C 4.157130 29.931300 5.698360
C 6.032430 30.623600 5.397850
C 5.562270 29.799600 5.447860
C 5.695510 30.029900 4.252920
C 4.596490 30.575600 5.175240
C 4.949700 31.389700 5.568990
C 1.851650 28.090700 6.794490
C 3.362220 29.725400 6.182110
C 3.854050 28.663300 6.387150
C 3.378550 29.515900 7.139160
C 2.577900 28.942500 7.341020
C 4.708780 29.045300 6.142750
C 5.087250 29.249600 7.189730
C 5.847280 29.026400 6.698280
C 0.822391 30.241300 7.033740
C 2.309100 30.708300 6.772390
C 0.700498 30.834900 7.788040
C 1.328930 29.887100 6.140000
C 2.538710 30.016900 7.442480
C 5.351170 30.351700 7.338060
C 5.058300 30.665600 6.138920
C 5.403350 31.294300 7.061130
C 4.530570 29.835600 6.705350
C 5.929850 30.148200 6.325570
C 3.192020 33.349800 7.804680
C 3.691780 32.377100 7.652560
C 4.268610 32.820400 6.846160
C 5.262860 32.297800 7.364440
C 4.822040 33.379200 7.456720
C 2.032220 29.088700 8.123730
C 2.170150 28.386000 9.229780
C 2.342940 29.445500 9.183460
C 3.007770 28.735900 8.293500
C 3.038670 28.740000 9.471830
C 5.831640 28.547500 8.609840
C 5.658300 29.318100 8.040270
C 1.526150 30.622400 8.233830
C 1.332630 29.874200 8.770720
C 0.591719 30.451500 8.899160
C 2.482350 30.156900 8.524340
C 3.252850 30.301100 8.000710
C 5.411440 30.237300 8.313580
C 5.687600 32.401300 8.269250
C 4.476900 32.319100 8.115820
C 4.980880 32.917000 8.682350
C 0.983220 29.506700 9.800310
C 1.930060 29.446400 9.981360
C 2.990830 29.297600 10.199200
C 4.589600 28.094100 11.077100
C 4.675800 28.346900 9.729080
C 4.840460 28.887100 10.537700
C 3.993370 30.633000 9.995090
C 3.329140 30.193000 10.525700
C 5.652680 31.087500 10.604200
C 4.920080 30.605100 10.200100
C 3.774280 28.145100 11.544800
C 5.843650 31.512900 12.753400
C 4.453230 32.438400 13.036600
C 5.452890 32.362300 13.004600
C 5.770490 28.793000 13.720100
C 5.890190 27.956400 14.265900
C 5.076890 31.463500 14.537800
C 4.837490 31.810300 13.646900
C 5.536950 30.648300 15.333200
C 5.290540 31.504500 15.609400
C 4.532370 31.095200 15.260500
C 6.340310 2.410440 1.151690
C 7.489830 5.852970 11.791100
C 7.553910 5.921780 12.729000
C 9.012400 5.860160 12.228400
C 6.413780 7.590030 10.070600
C 6.387660 7.110780 11.022100
C 6.306860 6.666820 10.168500
C 10.195400 7.527790 10.992100
C 10.313300 6.676310 10.607000
C 6.938500 7.430450 12.378700
C 6.597710 6.202490 11.934400
C 6.057880 7.138890 12.021500
C 7.489330 6.893650 11.873100
C 9.546420 6.853370 12.088000
C 8.385850 6.528290 11.956600
C 9.965220 7.687520 11.960300
C 9.852350 6.115890 12.579400
C 7.737100 6.133220 13.667200
C 7.178970 16.849500 13.071700
C 7.606910 16.001000 13.240400
C 6.638540 15.241900 13.859800
C 6.894000 16.163300 13.860700
C 7.164680 17.972900 4.131650
C 6.320070 17.570700 4.111680
C 6.763270 21.037700 4.167030
C 6.117940 17.616100 5.155870
C 7.330010 18.905500 4.363230
C 7.315670 20.468900 5.015540
C 6.509130 20.236600 4.535450
C 7.353640 19.500400 5.046060
C 6.639820 21.675600 4.901670
C 6.725850 21.877900 9.592800
C 6.658430 21.552300 8.730920
C 7.219230 22.291900 8.718270
C 6.296180 20.623600 11.179500
C 6.573350 20.935700 9.831380
C 6.544330 21.683200 10.791000
C 6.198490 17.049500 12.868300
C 6.387200 19.839300 11.773000
C 6.229640 19.808200 12.694000
C 6.357390 20.858800 12.692300
C 6.475250 21.427700 11.682700
C 7.881400 20.644300 14.007400
C 6.227570 20.769900 15.090100
C 6.202090 20.770900 14.131700
C 7.058140 20.929400 14.496000
C 8.182400 21.192100 14.712400
C 6.100370 20.623400 16.947800
C 8.066660 20.584800 15.403300
C 6.658030 21.753300 15.430200
C 7.627720 21.870300 15.496300
C 7.873100 21.225200 16.166900
C 6.214710 25.804100 4.132720
C 6.776990 25.611000 5.142250
C 6.339980 24.825300 5.430240
C 7.066050 23.908500 9.021880
C 6.312860 23.077000 8.847520
C 7.232160 23.002000 9.361840
C 6.174490 22.842200 7.957160
C 6.190070 27.710600 8.296270
C 6.886250 24.004800 9.960320
C 8.212690 25.289100 11.186500
C 8.773020 26.059700 11.373000
C 9.623920 25.841000 10.899800
C 7.787850 27.813000 9.904250
C 8.215660 27.141900 10.383500
C 8.735450 27.470400 11.079800
C 7.715030 25.593100 12.205000
C 7.498870 24.828700 11.677300
C 6.660770 25.606100 12.996200
C 8.730760 25.230300 12.079700
C 8.485180 25.368800 12.999400
C 9.569790 25.536600 11.827900
C 6.643010 27.182500 12.692500
C 6.087620 26.379400 12.866700
C 7.431080 26.254800 12.853800
C 8.831710 27.244000 11.991900
C 7.382150 25.099600 13.431900
C 8.864980 25.595000 13.839100
C 7.943460 25.682600 13.886400
C 6.869570 26.423700 13.640200
C 7.305080 26.645100 14.728700
C 6.908180 27.292300 14.093300
C 9.138660 26.575400 14.551300
C 8.287790 27.115400 14.759100
C 7.905760 26.713700 13.943000
C 9.911940 27.239600 14.609100
C 6.694450 22.756400 15.482800
C 8.025200 27.818800 15.391400
C 9.919230 27.940300 15.231000
C 6.459390 24.138700 20.408200
C 6.283690 23.778400 21.367400
C 6.615690 30.355700 4.176320
C 6.450470 29.784000 4.947550
C 6.412570 28.770700 7.810180
C 7.016300 28.052400 7.767380
C 6.218950 28.209100 7.071440
C 6.111120 31.849300 7.355180
C 6.977210 28.438200 8.674230
C 7.659060 28.839700 9.271250
C 6.973610 29.420800 9.621960
C 6.785400 28.654300 10.197600
C 7.251230 28.009600 10.700300
C 7.529420 30.277300 10.226900
C 6.333210 30.529900 10.202100
C 7.118520 31.029500 10.620200
C 8.006640 29.799100 10.944100
C 9.309720 28.781200 12.675200
C 9.204450 28.109900 11.975300
C 10.708700 29.255600 11.687800
C 10.621500 28.443300 12.291200
C 9.913560 29.394100 12.186800
C 7.656900 29.775600 11.855700
C 9.299480 29.864600 13.105000
C 6.721680 31.941100 13.013000
C 6.097650 29.473000 14.542100
C 7.510960 28.081500 14.669900
C 6.693900 28.435700 14.367200
C 6.536230 29.355800 13.601300
C 8.950760 29.220800 14.140400
C 8.517820 28.440200 14.448800
C 9.879740 29.344100 13.771100
C 6.200880 31.482200 13.644000
C 7.024660 30.670500 14.717900
C 7.874860 31.156600 14.650000
C 9.212670 30.358600 13.905000
C 8.250260 30.226600 14.006400
C 8.543300 31.102900 13.816000
C 7.565280 32.098900 13.406100
C 8.183910 31.884500 14.100800
C 6.241750 28.978000 15.398500
C 7.504600 28.442400 16.223100
C 7.194760 28.886100 15.440400
C 8.991080 28.182400 15.197400
C 6.392590 30.241500 15.341600
C 7.706270 31.257500 15.602900
C 7.825560 31.141500 16.957200
C 8.226520 30.775900 16.188700
C 8.581630 30.595600 17.416900
C 21.637900 28.176900 27.698300
C 21.233400 29.043800 27.585900
C 22.002600 28.266600 26.845100
C 18.954500 28.732500 29.454100
C 19.686800 29.393300 29.551200
C 19.967400 28.905000 28.692900
C 19.683100 28.047600 28.845800
C 21.560600 28.994700 28.489400
C 20.849500 29.050900 29.056300
C 19.496500 28.903000 30.334600
C 19.668200 28.040100 29.861300
C 27.592400 1.107710 16.868500
C 27.466800 1.225830 15.945400
C 27.619900 2.172430 16.063700
C 26.079700 3.070420 15.939600
C 26.141200 3.529410 16.668500
C 27.223800 2.958970 16.399900
C 26.879300 2.822890 15.428700
C 26.776400 4.686940 16.883200
C 27.842500 2.231550 18.709500
C 26.832100 4.209080 18.038500
C 27.291400 4.003530 17.219200
C 26.490300 3.445470 17.586400
C 25.970100 4.944290 17.408600
C 25.159700 4.971870 17.935400
C 25.589000 0.602382 27.457600
C 26.943200 0.623414 26.174100
C 26.427300 0.725413 26.942600
C 26.104100 21.581000 12.454800
C 25.666600 21.815900 11.611900
C 26.579800 21.014200 13.132500
C 26.501200 22.022600 13.337800
C 27.130500 21.456000 13.814000
C 26.500900 22.244900 14.447700
C 27.445000 22.131500 14.656600
C 26.993200 21.954500 17.673300
C 27.502300 20.859400 18.143200
C 26.898700 21.484300 18.509900
C 27.894800 21.798000 17.722900
C 27.725400 22.351200 17.012900
C 25.394700 22.870500 11.097100
C 25.729800 23.421600 11.860500
C 24.859500 23.527700 12.288100
C 25.032900 22.494500 11.872900
C 24.817100 24.404900 12.811900
C 27.137300 25.931700 12.147200
C 26.273900 26.366000 12.274600
C 26.590900 27.335200 12.326600
C 27.764700 27.882200 12.148000
C 27.827900 27.454400 13.277100
C 26.101800 23.171600 13.850200
C 24.707600 24.065500 14.915700
C 24.783000 22.966900 15.007100
C 25.874900 23.815700 14.589200
C 25.712900 22.842600 14.735000
C 26.865900 23.465500 14.358900
C 26.955900 22.757500 15.105400
C 27.572100 24.126100 14.788700
C 27.904500 23.670300 13.615800
C 27.077600 22.630000 13.813200
C 23.990300 24.617000 14.200000
C 24.378400 24.987300 13.390100
C 25.165300 24.873200 14.841500
C 27.573200 24.653600 13.870300
C 26.590700 24.306900 13.991600
C 26.654100 24.365800 14.924500
C 24.717600 23.577500 15.734200
C 26.837700 23.875100 16.688800
C 27.352500 23.712200 15.636200
C 27.466000 24.752500 16.947800
C 27.127800 23.056400 17.142500
C 27.586400 24.012100 17.536600
C 24.954800 24.437500 18.102300
C 25.460100 25.233100 18.416800
C 25.959700 26.055600 18.651600
C 25.386400 24.625800 17.316800
C 26.298100 27.096700 18.369000
C 26.657900 26.503800 17.717400
C 27.446300 27.024600 18.058400
C 26.864600 27.839500 18.473400
C 25.052000 24.591200 19.047500
C 25.649400 25.291800 19.366000
C 25.936400 26.110600 20.190900
C 26.536100 26.055900 19.405600
C 26.411700 25.290200 20.200300
C 27.479400 24.217700 22.227900
C 26.553300 23.816200 21.536600
C 27.023900 23.381400 22.227400
C 25.923700 24.686600 21.296500
C 26.138100 25.596200 21.020500
C 27.085500 25.043600 22.255800
C 26.871100 24.677700 21.255600
C 27.494000 23.730800 23.117000
C 27.489800 24.447300 23.732500
C 26.667900 24.905700 23.087500
C 27.628900 25.170300 23.110600
C 27.846500 32.124800 7.729170
C 27.721500 31.852300 8.606860
C 27.763200 28.846500 12.313900
C 27.915200 29.646000 11.569700
C 26.876500 28.023400 11.754000
C 27.385200 29.076200 14.533600
C 27.153200 29.765100 15.168000
C 27.920100 28.370000 14.148100
C 27.058200 30.858000 14.588900
C 26.521000 31.572200 14.665000
C 27.724900 28.728000 16.506700
C 26.994400 29.064600 15.752800
C 26.622700 28.655900 16.801100
C 27.293300 29.649600 16.616200
C 27.040500 28.097100 16.218700
C 27.309700 30.502200 16.283600
C 27.313600 31.050300 15.479300
C 26.814300 32.919500 15.734300
C 27.467900 33.054100 16.376400
C 26.474200 32.083500 15.472700
C 25.978500 28.578200 17.784900
C 26.172200 29.469300 17.063100
C 26.441400 28.669200 18.614300
C 27.778500 29.388000 18.435700
C 27.924600 29.441600 17.441600
C 26.952200 29.049400 17.858900
C 27.340100 28.267600 17.640600
C 26.929400 30.096500 17.439000
C 27.909800 30.312600 18.267700
C 25.950100 32.001500 19.671700
C 26.818700 32.470800 19.623700
C 27.029400 33.345500 19.241400
C 27.899800 33.261000 19.616800
C 25.613800 30.104600 24.253700
C 25.638000 29.499100 25.296800
C 24.788500 29.410200 25.899300
C 27.246800 29.222400 25.992200
C 26.270400 29.029900 25.929300
C 24.274800 30.071700 25.421600
C 25.763700 30.396600 25.097900
C 24.823300 30.517700 24.689400
C 24.880800 30.822900 25.554600
C 27.634100 30.352200 26.088700
C 26.645800 30.920300 24.929100
C 26.846300 30.194500 25.560400
C 26.629300 31.847500 24.596300
C 22.529200 28.946300 27.324300
C 24.169500 29.393700 26.998500
C 23.314200 29.582400 27.355000
C 23.937500 28.968700 26.152300
C 23.852100 30.710100 27.114000
C 23.391300 30.981600 27.936400
C 24.517900 30.291700 26.534100
C 24.943100 31.113400 26.643700
C 27.516300 29.785700 26.822800
C 22.855600 33.034900 26.629200
C 23.393100 32.737400 27.365600
C 25.036500 33.358800 26.684200
C 25.282800 31.764100 27.216500
C 24.735600 32.576800 27.117800
C 25.784100 32.528000 27.672300
C 27.899200 33.020400 26.295100
C 26.614900 33.088900 27.711400
C 27.045000 32.673500 26.699900
C 23.503600 32.602200 28.289500
C 23.622000 31.659500 28.572600
C 31.952700 5.149110 3.903240
C 33.360000 3.925090 5.341320
C 33.282400 2.947670 5.431620
C 31.738300 4.828380 4.804080
C 32.577200 5.482660 4.604110
C 33.422600 5.001100 5.427320
C 32.493200 4.734160 5.392370
C 29.171400 0.645886 6.311940
C 33.009800 4.591310 6.267120
C 33.014200 4.541310 7.231710
C 32.234100 5.298850 9.690190
C 32.019000 5.479890 8.756550
C 30.785800 3.627550 10.932500
C 31.659400 4.059930 10.825700
C 29.577700 4.987770 10.482000
C 29.669500 5.718360 11.262500
C 30.381800 5.585010 10.639000
C 30.557200 4.593270 11.086900
C 30.372800 4.460830 10.199100
C 32.405300 4.446060 11.341000
C 32.332500 4.811260 10.474400
C 30.513200 5.972460 11.618900
C 29.208400 2.694350 18.717500
C 28.342200 2.940490 18.339800
C 29.206800 0.911349 19.287800
C 29.742200 1.676120 19.236200
C 28.063900 1.484730 19.220000
C 28.036700 1.175910 20.184900
C 29.715900 2.570110 19.506800
C 30.911300 7.591960 4.005210
C 32.763100 6.743430 3.231640
C 32.025300 7.376280 3.463380
C 32.545100 6.304770 4.061740
C 30.086800 8.048510 3.945270
C 31.289100 8.217330 3.447840
C 32.163600 8.275430 3.739420
C 30.079300 7.330620 4.640380
C 30.536700 7.040610 5.452030
C 31.254300 7.640300 5.560930
C 29.387900 9.013450 5.809480
C 30.263700 8.316090 6.038810
C 30.001600 8.865800 5.093300
C 30.933800 9.005590 5.259010
C 31.653800 8.487970 5.661220
C 30.649800 7.534480 6.407490
C 31.135400 7.571420 7.235220
C 32.279400 7.103100 7.144830
C 33.185600 7.345170 7.358290
C 29.425300 8.306830 6.547610
C 31.270900 8.470970 7.561650
C 32.868800 8.256980 7.470150
C 32.383900 6.219270 9.209390
C 32.141200 7.656260 8.009640
C 32.885200 7.239290 8.472760
C 32.340600 7.188490 9.303310