1900
Atoms. Timestep: 0
H 31.248200 2.213330 2.047840
H 31.289300 2.247830 2.094470
H 32.265100 2.270910 1.749220
H 32.218600 2.221950 1.687400
H 29.768900 3.554740 2.159100
H 30.956900 3.404980 1.800570
H 30.937600 3.383650 1.783750
H 31.523600 4.066130 1.347020
H 31.534600 4.091260 1.358600
H 29.778900 3.557330 2.153760
H 30.351500 2.701160 2.220490
H 30.379300 2.718690 2.242540
H 31.871100 3.144040 1.517210
H 31.899800 3.181090 1.553910
H 32.477400 3.867380 1.111940
H 32.457200 3.826530 1.080480
H 33.045100 2.781760 1.299310
H 33.002900 2.724720 1.235760
H 33.420300 3.643490 0.865277
H 33.390700 3.586920 0.813932
H 29.656500 4.545350 1.880110
H 29.648800 4.539040 1.851910
H 30.804100 5.911620 0.967969
H 30.828600 5.910310 1.006640
H 30.590100 4.305740 1.613560
H 30.591700 4.315150 1.605260
H 30.044400 5.407550 1.458280
H 30.024100 5.400770 1.417880
H 31.169300 5.001440 1.163280
H 31.176100 4.988220 1.176830
H 32.109700 4.748620 0.910284
H 32.112200 4.777550 0.916623
H 31.779800 5.934700 0.622721
H 31.799100 5.918940 0.646200
H 29.344700 0.652848 27.774100
H 29.377800 0.684269 27.852400
H 30.726200 0.600689 26.377700
H 30.996500 0.775645 27.267500
H 31.017100 0.817684 27.309500
H 29.857700 0.581806 26.940800
H 31.750600 0.735860 26.313900
H 31.751900 0.684397 26.289300
H 33.201000 1.188730 27.614400
H 33.174600 1.138930 27.619400
H 32.648200 0.898442 26.761000
H 31.957800 0.947791 27.482700
H 32.656500 0.951099 26.766600
H 31.982300 0.992889 27.503900
H 29.415100 0.880624 28.868100
H 29.360000 0.855346 28.789200
H 30.576800 1.046490 28.926000
H 30.633900 1.076470 28.978600
H 31.308100 1.034680 28.241300
H 31.267300 0.997139 28.204300
H 31.538100 1.218630 29.141100
H 31.599000 1.251670 29.173100
H 29.959600 1.118260 29.716000
H 29.886400 1.095840 29.647700
H 30.306000 0.824994 27.989200
H 30.342900 0.859473 28.046800
H 32.228600 1.169280 28.419500
H 32.273200 1.209880 28.435700
H 32.758400 1.487550 29.541800
H 32.690000 1.451680 29.534500
H 33.189900 1.341430 28.634600
H 33.238300 1.385090 28.630200
H 30.865500 1.333500 30.168600
H 30.782700 1.309880 30.119300
H 31.889900 1.468670 30.104900
H 31.808900 1.440130 30.077900
H 32.695700 5.431100 33.322300
H 32.689800 5.463840 33.323400
H 33.278300 4.577520 33.383700
H 33.290300 4.625200 33.412200
H 29.844600 33.391400 26.874200
H 30.725700 33.402900 26.330700
H 0.847008 5.329600 6.914600
H 0.818487 5.356350 6.918940
H 1.703560 5.425450 6.386360
H 1.523310 5.603050 7.598570
H 1.509160 5.609230 7.596440
H 1.739140 5.403650 6.394610
H 3.621450 5.878050 6.876020
H 2.721610 5.611550 6.359560
H 2.754650 5.604390 6.380490
H 2.477140 5.740440 7.331520
H 2.460720 5.736830 7.316750
H 3.599840 5.864790 6.845710
H 0.777787 5.874940 9.689060
H 1.245790 5.739100 8.549600
H 1.248260 5.734500 8.553630
H 1.938930 5.987370 9.231130
H 1.922100 6.012550 9.233570
H 2.199620 5.876500 8.282540
H 2.199820 5.862100 8.273940
H 3.151380 5.989700 7.994250
H 3.153440 6.013890 8.015490
H 0.799804 5.859410 9.702170
H 4.102940 6.117300 7.714560
H 4.107260 6.151290 7.748430
H 3.552230 6.423390 9.650480
H 4.096100 6.301430 8.733290
H 3.581160 6.367850 9.628940
H 4.081930 6.350900 8.763950
H 2.890490 6.114970 8.951440
H 2.875920 6.149940 8.966510
H 1.644580 6.148600 10.184600
H 1.678040 6.112650 10.188300
H 2.696090 6.298750 10.161500
H 2.660100 6.349340 10.170500
H 2.921610 22.418800 7.923810
H 2.806330 22.073500 8.892960
H 2.820000 22.127700 8.881620
H 2.911870 22.213800 9.913230
H 2.947170 22.260300 9.900460
H 4.335570 20.219400 13.083900
H 4.352040 20.164900 13.089500
H 4.713870 19.259200 13.165700
H 4.730320 19.205700 13.182100
H 5.020350 18.463200 13.752400
H 5.034340 18.415500 13.777900
H 5.182650 18.006000 14.717100
H 5.172890 18.044800 14.686900
H 4.402630 20.000600 14.074600
H 4.390690 20.045700 14.067200
H 4.743780 19.125900 14.418800
H 4.733090 19.167700 14.401400
H 4.445820 19.872100 15.050400
H 4.453210 19.836400 15.059700
H 4.103420 20.750200 14.716200
H 4.112060 20.711100 14.715500
H 4.000880 21.036100 13.524700
H 3.986800 21.086500 13.529200
H 3.761030 21.628300 14.382000
H 3.770910 21.585800 14.371300
H 4.904830 18.657600 16.571700
H 4.905540 18.636800 16.594600
H 5.130600 18.115900 15.718900
H 5.135510 18.087000 15.748100
H 4.176100 20.467200 16.937300
H 4.177760 20.485000 16.935200
H 4.158550 20.576500 15.699500
H 4.162650 20.546900 15.700600
H 4.503790 19.672200 16.044800
H 4.794360 18.961700 15.403900
H 4.788210 18.994000 15.384700
H 4.500940 19.698400 16.033700
H 3.872080 21.257400 16.341500
H 3.723770 21.666800 15.402300
H 3.718750 21.699400 15.413900
H 3.871280 21.280900 16.348500
H 4.556060 19.524800 17.016900
H 4.554380 19.508000 17.029900
H 3.214580 23.219900 7.253310
H 3.226830 23.157200 7.265460
H 3.630600 24.151900 7.080140
H 3.640200 24.090800 7.094320
H 4.050970 24.969500 7.456230
H 4.054470 25.025400 7.439580
H 2.917880 22.479000 7.912700
H 3.428650 23.521500 8.174600
H 3.437240 23.576500 8.160600
H 3.218400 22.979700 8.988350
H 3.239950 23.030500 8.974760
H 3.630470 23.885800 9.083740
H 3.659890 23.933200 9.067900
H 3.840720 24.427600 8.269990
H 3.857180 24.479300 8.253740
H 4.042540 24.791900 9.179120
H 4.079840 24.836000 9.161040
H 4.372610 25.606200 8.235340
H 4.349060 25.557800 8.254240
H 4.454610 25.698100 9.274510
H 4.499780 25.738700 9.254180
H 3.209970 22.802100 10.711200
H 3.689180 23.714500 11.055700
H 3.620730 23.680800 11.073200
H 3.265320 22.841100 10.696200
H 3.420220 23.344000 9.897480
H 3.462600 23.387100 9.882060
H 3.882550 24.289900 9.975200
H 3.832290 24.250100 9.992870
H 4.034110 24.614400 10.902000
H 4.105200 24.646600 10.882500
H 4.339330 25.352800 10.243700
H 4.401900 25.387500 10.223100
H 1.320880 24.866400 18.720000
H 1.449710 25.706200 18.192700
H 0.621595 25.159600 18.068100
H 1.578550 26.546000 17.665300
H 0.662180 26.174700 17.358300
H 2.425870 26.467100 18.254900
H 1.063210 23.186800 19.774800
H 1.979580 23.558000 20.081700
H 1.192040 24.026600 19.247400
H 2.719440 24.279800 20.023800
H 2.020160 24.573100 19.371900
H 2.149000 25.412900 18.844600
H 3.084570 25.158800 19.616600
H 2.977110 25.959400 18.969100
H 2.242010 32.782300 4.301160
H 1.903830 32.059200 5.838270
H 1.383480 32.483700 4.796710
H 0.926297 32.068900 5.627760
H 3.271860 32.884400 4.273880
H 4.197080 32.762900 4.722180
H 3.539220 32.406200 5.385490
H 2.561690 32.415900 5.174970
H 2.881360 32.049500 6.048790
H 4.769740 32.450200 5.525950
H 1.565640 31.336100 7.375390
H 2.490860 31.214600 7.823690
H 3.520700 31.316700 7.796410
H 0.992974 31.648800 6.571620
H 2.223500 31.692800 6.712090
H 3.201030 31.683100 6.922600
H 3.858890 32.039800 6.259300
H 4.379240 31.615300 7.300860
H 4.836420 32.030100 6.469810
H 5.621680 29.577100 10.630500
H 5.806900 28.594000 10.363900
H 5.750320 30.367600 11.286500
H 6.256350 27.681900 10.558000
H 6.849600 27.085000 11.161000
H 7.427680 26.963300 12.011200
H 7.835710 27.349400 12.880700
H 6.299960 28.726300 11.223700
H 6.793010 28.858500 12.083600
H 7.314360 28.104000 12.482200
H 6.764720 29.745300 12.544900
H 7.286070 28.990700 12.943500
H 6.821310 27.971700 11.622300
H 6.271670 29.613000 11.685100
H 6.158340 30.753700 12.156100
H 6.736430 30.632000 13.006300
H 7.779120 29.123000 13.803400
H 7.964340 28.139900 13.536700
H 7.329680 30.035200 13.609200
H 27.488500 25.834400 14.428700
H 27.308600 25.068700 15.101900
H 27.062200 27.787200 14.361100
H 27.398300 26.829400 14.157500
H 26.939400 26.759900 15.043300
H 26.390900 24.929700 16.873400
H 26.906900 24.737600 15.996700
H 26.435700 25.810000 16.401200
H 26.894600 25.879500 15.515500
H 26.066500 27.501200 16.342700
H 26.021700 26.620900 16.814800
H 26.480500 26.690400 15.929100
H 26.525400 27.570800 15.456900
H 25.898900 25.593600 17.497100
H 25.472600 27.546400 17.429400
H 25.562800 26.551400 17.700600
H 27.645000 25.983600 22.470900
H 26.766000 25.996600 23.017800
H 26.208900 26.360300 23.811000
H 27.366500 26.651000 23.477300
H 27.044900 27.141400 24.287300
H 26.122800 26.977300 24.637800
H 27.645300 27.795800 24.746900
H 26.530900 27.682200 25.276900
H 26.570200 28.451100 14.984700
H 25.652500 28.312100 16.756300
H 26.054200 28.643200 15.861400
H 27.323700 28.286100 25.556900
H 33.166100 5.402090 7.801130
H 33.152300 5.422760 7.814590
H 33.140800 5.601700 8.816660
H 33.145500 5.606900 8.833320
H 31.840000 20.178700 13.013300
H 31.859100 20.205800 13.025500
H 30.867800 21.881000 12.566200
H 30.839800 21.840100 12.524100
H 31.367300 20.949400 12.509000
H 31.391300 20.988400 12.535100
H 32.131300 19.734500 13.901900
H 32.145700 19.742900 13.906100
H 32.163100 19.735700 14.936700
H 32.174500 19.723800 14.940700
H 31.678800 20.561400 14.711100
H 31.662900 20.566400 14.692100
H 30.687600 22.236600 14.251700
H 30.662700 22.227800 14.202900
H 31.001300 21.618600 13.485800
H 31.025500 21.640000 13.523800
H 31.183200 21.399000 14.481400
H 31.162800 21.397100 14.447500
H 31.521100 20.802400 13.753500
H 31.501400 20.787900 13.730400
H 30.824300 22.006300 15.164500
H 31.926800 20.182200 15.840400
H 31.937600 20.153500 15.852400
H 31.498600 20.916900 16.396600
H 31.485900 20.954100 16.370800
H 30.975100 21.809500 16.427700
H 30.958400 21.844800 16.385900
H 30.845300 21.995500 15.209300
H 31.340900 21.157900 15.439000
H 31.324400 21.175600 15.409100
H 30.398800 22.612000 13.054600
H 30.428800 22.644500 13.110400
H 30.162600 23.058500 13.958300
H 30.191900 23.074200 14.022000
H 30.220700 23.055000 15.056700
H 30.194400 23.059700 14.993000
H 30.507300 22.592100 15.937300
H 30.485700 22.615500 15.881600
H 32.513400 23.773300 18.471000
H 32.406000 24.573900 17.823500
H 32.771100 25.452900 17.416200
H 33.341500 24.319800 18.595500
H 33.064700 23.265600 19.185200
H 28.610200 26.324800 22.316800
H 29.403000 26.928700 22.596800
H 28.889000 27.469600 23.586300
H 28.288600 26.815100 23.126800
H 27.966900 27.305500 23.936800
H 29.811100 27.633700 23.235800
H 29.725000 28.250600 24.062700
H 29.167800 28.614300 24.855900
H 28.567400 27.959900 24.396400
H 28.288900 28.627300 25.402800
H 5.860050 4.743860 12.915200
H 5.864860 4.660430 12.916000
H 5.898620 4.716680 12.938300
H 5.762620 2.028920 15.064400
H 5.778500 1.934710 15.052100
H 5.781760 1.996690 15.080200
H 5.811330 3.386390 13.989800
H 5.761750 3.039320 14.410600
H 5.366560 3.952060 14.684200
H 5.376160 3.858480 14.681800
H 5.380610 3.918240 14.697300
H 5.774460 3.766140 13.769200
H 5.795490 3.824520 13.792200
H 5.749530 2.979290 14.385900
H 5.564590 2.990490 14.874300
H 4.970510 5.875200 14.304000
H 5.414340 4.703440 14.079000
H 5.448080 5.488630 13.460600
H 5.426020 5.432180 13.448600
H 4.999460 4.797160 14.984000
H 5.002790 4.737680 14.977800
H 5.168540 4.913620 14.494100
H 5.422820 5.519530 13.443300
H 4.979450 5.839800 14.314400
H 5.401090 4.645330 14.065200
H 5.613310 4.347960 13.799700
H 4.973810 5.782260 14.311500
H 5.326300 2.284790 15.915100
H 5.313130 2.347860 15.933900
H 5.310310 2.384580 15.925100
H 5.346870 3.133050 15.315600
H 5.351230 3.071640 15.298400
H 4.873080 3.160250 16.453200
H 5.119820 3.556150 15.568700
H 4.887450 3.056540 16.447600
H 4.862590 3.119810 16.456300
H 4.550840 4.105700 16.507300
H 4.965720 4.011970 15.602300
H 4.977860 3.950830 15.594400
H 4.568080 4.148080 16.507400
H 4.579560 4.043170 16.507000
H 4.461430 5.041360 16.073400
H 4.629420 5.616870 15.273700
H 4.485110 4.980320 16.077300
H 4.921800 4.517720 15.378600
H 4.624330 5.715560 15.266500
H 4.477030 5.083390 16.073000
H 4.618320 5.676080 15.270700
H 1.076480 7.530500 13.395100
H 1.101820 7.583520 13.371100
H 0.727380 6.563610 13.517700
H 0.779789 6.605490 13.478500
H 0.953395 8.550770 13.520300
H 0.949509 8.598000 13.510300
H 5.454060 11.092900 18.622900
H 5.444870 11.050000 18.594900
H 5.456420 11.045900 18.591900
H 5.279180 10.081300 18.756500
H 5.288150 10.034600 18.735900
H 5.280580 10.038100 18.739200
H 4.982970 8.866810 20.332700
H 5.111510 9.238990 19.375300
H 5.112500 9.236590 19.371600
H 5.103430 9.277080 19.384300
H 4.976550 8.865610 20.328500
H 4.973910 8.895730 20.338000
H 5.262760 10.832300 20.574600
H 5.187140 10.035600 19.974900
H 5.186570 10.033500 19.971100
H 5.353820 10.941100 19.584700
H 5.189680 10.066200 19.992500
H 5.365000 10.974100 19.611800
H 5.358530 10.938200 19.581200
H 5.275930 10.855200 20.600700
H 5.260630 10.830400 20.570600
H 4.965150 9.661020 22.168200
H 4.970660 9.669690 22.182200
H 4.925310 9.039440 21.362100
H 4.916710 9.021110 21.350200
H 4.929400 9.021290 21.355000
H 4.949030 9.661420 22.163100
H 5.088670 9.925780 20.960400
H 5.100620 9.947340 20.981400
H 5.171700 10.723400 21.564500
H 5.186870 10.736400 21.589600
H 5.162730 10.722700 21.559900
H 5.096080 9.926790 20.964800
H 5.080650 10.614600 22.554300
H 5.097810 10.617600 22.578500
H 5.064840 10.615000 22.549200
H 0.876186 14.797900 3.439170
H 0.892487 14.799000 3.426540
H 0.696242 13.949300 3.915840
H 1.597320 15.008200 4.099280
H 1.071120 14.162300 4.186110
H 0.681253 15.433600 2.692230
H 1.623540 15.402200 3.745440
H 1.088730 15.648800 2.937240
H 1.284980 16.498500 2.447950
H 1.258700 16.508700 2.476420
H 1.402390 15.643800 3.352340
H 1.928590 16.489700 3.265510
H 1.963230 16.476700 3.229780
H 2.354580 16.005400 4.064340
H 2.316480 16.017400 4.101140
H 1.427290 14.552500 4.234740
H 1.283420 13.533200 4.924760
H 1.266050 13.526600 4.933040
H 1.933970 14.306700 5.063880
H 1.962090 14.306000 5.042930
H 2.354170 15.210900 4.728000
H 2.318450 15.218400 4.759390
H 5.192100 12.702700 9.227420
H 5.169650 12.719300 9.206550
H 5.916450 11.964000 9.265570
H 4.492160 13.331700 9.694180
H 5.890060 11.976400 9.236910
H 6.028780 11.554600 10.911100
H 4.630890 12.909900 11.368300
H 5.628440 12.093300 10.214400
H 5.609950 12.104300 10.188300
H 4.507500 13.312700 9.707970
H 5.340430 12.222700 11.163300
H 5.329830 12.232300 11.139700
H 4.923970 12.767700 10.435600
H 4.911000 12.782000 10.416900
H 6.044900 11.548300 10.942100
H 4.635960 12.897000 11.384500
H 4.046090 13.630700 10.578500
H 4.039130 13.649500 10.569100
H 4.194420 13.150700 12.514300
H 4.199310 13.162400 12.502300
H 4.764420 12.481300 13.060900
H 4.769610 12.488100 13.042500
H 5.052430 12.352000 12.112100
H 5.049720 12.360200 12.091100
H 5.490020 11.745200 13.072800
H 5.748670 11.682600 11.862500
H 5.756900 11.677600 11.890900
H 5.488760 11.742600 13.099100
H 3.931490 13.571400 11.605700
H 3.931940 13.587500 11.597000
H 0.607144 16.656000 12.244100
H 5.604550 12.639800 19.790900
H 5.560370 12.003600 18.981000
H 5.572230 11.999500 18.978000
H 5.581210 12.040800 19.019200
H 5.429440 11.737800 20.184400
H 5.451250 11.763200 20.220000
H 5.432590 11.735100 20.180700
H 5.596130 12.643300 19.794200
H 5.626560 12.671100 19.839300
H 5.272690 11.629200 22.444800
H 5.244940 11.626500 22.410000
H 5.542550 12.797800 20.816500
H 5.414010 12.425600 21.773900
H 5.362190 11.644300 21.208900
H 5.334690 11.627400 21.170100
H 5.338390 11.628900 21.174300
H 5.448440 12.433400 21.817100
H 5.408750 12.424300 21.769600
H 5.544710 12.795300 20.812700
H 5.577960 12.814800 20.863300
H 5.233110 11.626300 22.405200
H 9.976620 0.738645 5.747880
H 9.898830 0.694749 5.714660
H 10.047200 1.668430 5.395760
H 10.123200 1.717020 5.442800
H 9.452460 3.469990 6.028640
H 9.883830 2.684240 5.510680
H 9.946000 2.729860 5.563390
H 8.599290 1.003490 7.507910
H 8.399520 1.403520 7.765440
H 8.930330 0.850025 7.123670
H 8.883680 1.825660 7.014820
H 8.915010 1.845630 7.031420
H 9.181060 0.924876 6.698380
H 8.301910 1.904270 7.824350
H 9.445820 1.292140 6.389650
H 9.430510 2.287740 6.297400
H 8.384210 2.399120 7.673190
H 9.465450 1.747040 6.205290
H 9.168070 2.647820 6.521730
H 8.586300 2.726440 7.331260
H 8.899700 2.841240 6.939170
H 8.288920 3.627220 7.647700
H 8.284410 3.634380 7.665960
H 8.868680 3.815150 6.810840
H 8.884390 3.836840 6.846930
H 9.492570 3.505770 6.077330
H 7.720140 1.982880 8.633880
H 7.706860 1.974240 8.620040
H 7.884030 0.961404 8.499450
H 7.883520 0.967074 8.518950
H 7.853410 2.952620 8.314960
H 7.868520 2.956560 8.314980
H 6.256100 2.820720 13.295400
H 6.210370 3.730790 12.887200
H 6.267210 2.736650 13.286300
H 6.172760 3.673790 12.856600
H 6.299780 2.795130 13.321200
H 6.165050 3.756030 12.861000
H 6.142900 2.160400 14.123800
H 6.108800 2.188550 14.101900
H 6.122900 2.100100 14.089900
H 10.559000 6.016820 20.039500
H 10.620800 4.810320 20.401500
H 11.273900 4.466600 19.782200
H 11.310500 4.472630 19.760000
H 11.278800 4.464300 19.772100
H 11.343600 4.444610 19.756800
H 11.205200 5.434820 19.541800
H 11.251700 5.411980 19.520700
H 11.199100 5.433560 19.539400
H 11.224900 5.438690 19.516300
H 10.589900 4.847970 20.401500
H 10.561800 4.852860 20.426800
H 10.564400 4.837900 20.421600
H 10.570100 6.028760 20.035600
H 10.577900 6.022590 20.006500
H 10.601200 5.987900 20.015800
H 10.016400 5.640440 20.740500
H 10.042500 5.596450 20.747000
H 10.003700 5.654490 20.769800
H 9.998630 5.630820 20.772300
H 6.727730 10.877000 10.682400
H 6.460350 11.302100 9.777120
H 6.749380 10.873900 10.720900
H 6.486450 11.294600 9.812210
H 6.167500 11.132900 12.585200
H 6.634780 10.814600 11.748100
H 6.620540 10.815100 11.710300
H 6.173360 11.132600 12.618600
H 10.999000 8.339480 18.820500
H 10.968200 8.336850 18.785200
H 10.976200 8.314090 18.812500
H 9.858860 7.531190 20.274800
H 9.866250 7.590930 20.289000
H 9.839210 7.569350 20.306900
H 9.845230 7.572550 20.253100
H 11.136400 6.403040 19.301300
H 11.039700 7.372080 19.074000
H 11.068100 7.346720 19.048600
H 10.479300 6.986080 19.806800
H 10.509400 6.955270 19.779700
H 10.501300 6.996980 19.795200
H 11.053800 7.370800 19.028900
H 11.067700 7.371260 19.060900
H 10.492300 6.988640 19.762800
H 11.119400 6.402820 19.306700
H 11.139400 6.404740 19.272600
H 11.159900 6.379350 19.284600
H 10.960000 8.341350 18.841300
H 10.288200 8.195520 19.615400
H 10.293400 8.194480 19.557300
H 10.302700 8.161390 19.583700
H 10.323700 8.206870 19.593900
H 9.749100 6.656690 20.719400
H 9.733210 6.630600 20.730300
H 9.743860 6.637700 20.686100
H 9.763640 6.592360 20.700600
H 10.282900 15.119700 18.526300
H 10.220000 15.075300 18.547600
H 11.335700 16.526800 17.742500
H 10.608100 16.810600 18.339700
H 10.008300 16.033500 18.739800
H 10.058300 16.072500 18.730500
H 10.929700 15.616800 18.023300
H 10.987300 15.677200 18.011800
H 10.566200 16.759300 18.337200
H 11.382600 16.596000 17.744700
H 9.458040 15.072700 19.150200
H 9.396900 15.047300 19.174900
H 8.263830 16.422200 20.083500
H 8.733860 15.548900 19.716300
H 8.680880 15.540300 19.737100
H 9.283750 16.287100 19.325600
H 9.238740 16.266000 19.334500
H 8.304370 16.420700 20.073100
H 9.796600 16.991800 18.931900
H 10.354500 17.717500 18.529300
H 10.383500 17.763400 18.544000
H 10.912300 18.443300 18.126800
H 10.933400 18.501600 18.153200
H 11.362900 17.629800 17.796500
H 11.329400 17.561300 17.780300
H 10.196300 18.936300 18.688900
H 10.209300 18.977800 18.719400
H 8.284650 17.454500 20.124800
H 8.257470 17.456800 20.121400
H 9.027040 17.224300 19.526600
H 9.059150 17.239900 19.529800
H 8.679980 18.373300 19.857700
H 8.663530 18.366700 19.840500
H 9.609040 17.978000 19.139000
H 9.584890 17.950000 19.124100
H 9.833650 17.025200 18.934800
H 9.384430 18.930800 19.343300
H 9.373190 18.908300 19.316200
H 9.478440 32.872900 6.381940
H 8.945640 32.703200 7.215910
H 8.898680 32.684900 7.218800
H 9.545610 32.905700 6.396880
H 8.337460 33.034300 7.985510
H 8.314900 33.030100 8.001000
H 12.399500 5.236290 18.306600
H 12.406600 5.215150 18.313700
H 12.461000 5.227510 18.294500
H 12.433500 5.236940 18.292100
H 11.810400 5.803430 18.789600
H 11.786400 5.820840 18.782300
H 11.771500 5.809100 18.807500
H 11.759500 5.819560 18.806600
H 11.950500 4.610120 18.998000
H 11.985300 4.615010 18.987900
H 11.949200 4.599210 19.008800
H 12.017100 4.597310 18.985600
H 12.277300 7.162250 17.822300
H 12.269200 7.151590 17.832900
H 12.240100 7.174820 17.841200
H 12.262300 7.169050 17.804700
H 11.702800 6.777310 18.567100
H 11.718600 6.770800 18.553500
H 11.700800 6.786890 18.538600
H 11.679700 6.788820 18.573900
H 12.505500 6.175040 17.883100
H 12.523800 6.149390 17.883300
H 12.534800 6.171780 17.859000
H 12.556200 6.166340 17.868700
H 11.688900 7.961520 18.143700
H 11.699000 7.948380 18.167800
H 11.711100 7.953220 18.175900
H 11.674400 7.967740 18.191900
H 25.414300 8.018760 3.629920
H 24.769700 8.603540 3.069280
H 24.536600 9.510360 2.627550
H 25.421100 9.657870 3.070280
H 25.859900 8.912070 3.571470
H 26.744300 9.059590 4.014200
H 26.297700 7.912700 4.159230
H 24.777500 10.496200 2.423070
H 25.866600 10.551200 3.011830
H 25.427800 11.297000 2.510640
H 26.305500 9.805380 3.513010
H 27.189900 9.952900 3.955750
H 27.841200 11.007200 3.956740
H 26.751100 10.698700 3.454560
H 27.833400 9.114550 4.602960
H 27.183100 8.313790 4.515390
H 27.196700 11.592000 3.396110
H 26.313300 11.698100 2.866800
H 29.048600 0.773692 9.652020
H 29.154500 1.650810 10.191700
H 29.739200 2.288820 10.759900
H 29.994900 0.766061 9.975160
H 30.340200 1.523630 10.529100
H 30.941200 0.758430 10.298300
H 31.286500 1.515990 10.852200
H 32.833800 0.743169 10.944600
H 31.887500 0.750800 10.621400
H 32.432600 1.624380 11.311000
H 31.631800 2.273560 11.406100
H 30.646000 2.516760 11.204400
H 32.918500 5.925990 13.803800
H 32.010600 5.727080 14.259800
H 31.937000 5.742540 14.317000
H 32.848400 5.909170 13.855100
H 28.074300 10.100400 4.398480
H 31.148200 6.062070 14.724400
H 31.295200 7.787630 14.752000
H 31.281900 7.829300 14.781900
H 30.523900 6.908630 15.119000
H 30.562400 6.841180 15.073000
H 31.086200 6.108370 14.779600
H 31.624600 6.919030 14.549600
H 31.664300 6.890830 14.508000
H 32.180300 7.719590 14.291700
H 32.163000 7.729700 14.319700
H 33.044100 7.630100 13.857400
H 33.065500 7.651550 13.831400
H 32.505700 6.819430 14.087400
H 32.549400 6.822790 14.047700
H 31.442200 9.513190 14.779500
H 31.477700 9.550230 14.784200
H 30.749900 8.895800 15.121600
H 30.732100 8.833690 15.104900
H 31.811200 8.616390 14.535600
H 31.820300 8.639970 14.551900
H 32.696400 8.548350 14.075300
H 32.701500 8.540370 14.089700
H 33.239900 9.351030 13.859700
H 33.212400 9.377120 13.859000
H 32.389000 9.716860 14.322300
H 32.350000 9.712100 14.323500
H 30.410000 7.855660 15.212300
H 30.400800 7.928900 15.244200
H 32.282700 14.377400 2.118960
H 32.279600 14.387200 2.125090
H 33.350300 16.064900 1.928330
H 32.667200 15.289100 1.814460
H 32.671700 15.292100 1.810150
H 33.335100 16.069200 1.945300
H 32.672600 13.106100 3.612830
H 32.670500 13.121300 3.623300
H 33.010200 14.195800 3.107640
H 32.279200 13.592600 2.788750
H 32.284700 13.578400 2.777210
H 33.003800 14.587700 2.779060
H 33.198800 13.952000 3.526000
H 33.206500 15.045600 2.618350
H 33.348800 13.099600 4.405140
H 33.342500 13.087200 4.401920
H 31.269100 14.477600 10.671900
H 30.637100 14.145000 11.421400
H 31.584400 14.940100 11.500500
H 32.070000 15.058200 10.366400
H 32.825300 15.731000 10.586900
H 33.332600 16.315900 11.274200
H 32.362500 15.566800 11.458000
H 31.121600 14.776000 12.371700
H 30.343500 14.149300 12.414200
H 31.437000 15.238500 13.200300
H 31.899700 15.402600 12.329200
H 32.215100 15.865100 13.157800
H 33.162300 16.660300 13.236900
H 32.677800 16.029300 12.286700
H 30.466900 14.489400 13.384100
H 30.974200 15.074300 14.071400
H 31.729500 15.747100 14.291900
H 32.530400 16.327700 13.986400
H 29.100400 17.525300 5.303500
H 29.140800 17.543000 5.322290
H 31.451100 18.498700 6.029430
H 29.814600 17.959600 5.852450
H 31.217600 18.295400 5.669350
H 30.274800 17.977600 5.569330
H 30.736900 18.064400 5.480480
H 29.982200 17.540100 4.719070
H 29.944400 17.512000 4.704140
H 30.945000 17.734900 4.559560
H 30.980300 17.771700 4.571500
H 31.867900 18.175700 4.919120
H 31.834100 18.134400 4.908500
H 32.373400 18.603500 5.657460
H 32.406900 18.643800 5.668790
H 29.606500 18.289100 6.773370
H 29.624600 18.097300 6.319560
H 28.639100 17.771400 6.197040
H 28.681700 17.779500 6.219530
H 28.727900 18.186400 7.170380
H 28.684200 18.184300 7.145340
H 30.567400 18.415100 6.419580
H 30.528800 18.393900 6.401400
H 29.917200 18.534800 7.169810
H 31.510300 18.732900 6.519610
H 30.320600 18.723400 7.322320
H 30.860000 18.852600 7.269840
H 31.242900 18.828200 6.950350
H 31.994000 19.287300 7.516880
H 31.957100 19.262400 7.499300
H 32.418400 19.016300 6.605760
H 32.453100 19.050700 6.619630
H 29.223500 18.653300 7.894300
H 29.267000 18.654500 7.920050
H 30.112500 19.052900 8.243240
H 30.154500 19.058500 8.267670
H 31.113100 19.275800 8.098660
H 31.152700 19.290100 8.120100
H 29.449800 32.741300 9.285560
H 30.250600 32.092100 9.190460
H 31.236400 31.848900 9.392200
H 31.542200 32.842000 10.067500
H 30.595900 32.849600 9.744380
H 32.143200 32.076800 9.836730
H 32.727900 32.714800 10.404900
H 0.983551 9.249740 1.244840
H 0.953631 9.209560 1.251980
H 1.942760 9.217370 0.856711
H 1.909340 9.178740 0.855184
H 2.004750 8.829600 1.787370
H 2.027410 8.858440 1.786220
H 1.219400 8.790310 2.371400
H 1.202650 8.762740 2.380790
H 2.916170 8.960810 0.957948
H 2.947330 8.992640 0.966707
H 3.704360 8.614180 1.532740
H 3.728100 8.635780 1.545350
H 2.902260 8.547320 2.126150
H 2.920080 8.567650 2.130540
H 3.240580 7.749280 4.186610
H 3.246680 7.751370 4.187150
H 1.304050 8.431380 3.300910
H 1.298060 8.413610 3.312980
H 2.112070 8.499510 2.715720
H 2.100160 8.480460 2.719560
H 2.195570 8.131330 3.651750
H 2.196720 8.140590 3.645230
H 3.897410 7.917930 3.404360
H 3.895180 7.915910 3.397120
H 2.997670 8.198190 3.058340
H 3.004740 8.208720 3.060040
H 4.075850 8.242410 2.437590
H 4.062700 8.231720 2.425530
H 2.281370 7.781660 4.574740
H 2.290980 7.782190 4.583940
H 1.276800 8.006390 4.464740
H 1.284140 8.000120 4.481180
H 33.153900 9.045020 2.042010
H 33.175500 9.081100 2.027080
H 33.344800 8.363250 3.886100
H 32.997100 8.756620 2.993850
H 32.986400 8.729210 3.013590
H 33.344700 8.346750 3.906390
H 1.399720 6.836850 23.912400
H 1.354340 6.804420 23.942100
H 2.104510 7.508290 24.058700
H 2.116040 7.573900 24.036600
H 0.707735 6.181850 24.317300
H 1.413180 6.959040 24.928400
H 1.803290 7.358490 24.961700
H 1.490540 7.143080 25.886700
H 1.472010 7.113650 25.914600
H 2.078610 7.610030 25.293600
H 0.806582 6.462660 25.549300
H 1.099140 6.662460 25.102000
H 2.194690 7.839100 25.746400
H 0.786388 6.447050 26.027100
H 0.635702 6.183420 24.354100
H 2.664750 8.195510 24.656500
H 2.685200 8.106410 24.672600
H 2.940820 8.438520 25.619200
H 2.898840 8.535120 25.606000
H 1.589680 7.422880 27.887000
H 0.839513 6.719020 27.770400
H 0.865417 6.617280 26.535600
H 1.530850 7.268270 26.900800
H 1.177790 6.927670 26.811800
H 1.881940 7.623690 26.671500
H 0.865040 6.712250 27.736900
H 2.137440 7.764640 26.279800
H 1.581360 7.449310 27.861000
H 2.308320 8.043890 27.475100
H 2.273340 8.104300 27.456200
H 2.802880 8.415640 26.645000
H 2.755570 8.501740 26.630800
H 32.989900 5.811670 25.184100
H 33.074300 5.784410 25.142700
H 32.931000 5.751030 26.167400
H 32.852000 5.788780 26.209900
H 33.165100 6.090640 27.117000
H 33.107600 6.120900 27.156500
H 5.887670 0.859397 2.602700
H 5.795700 30.418000 0.579275
H 5.765590 31.367900 1.374700
H 5.527570 30.418400 1.579210
H 5.945640 33.012800 1.886440
H 5.707620 32.063300 2.090960
H 6.003610 32.317400 1.170190
H 5.387000 30.927600 2.469550
H 5.411640 31.809200 3.011730
H 5.594900 32.827000 3.060470
H 6.479640 1.367530 0.761158
H 6.211510 1.367930 1.761100
H 6.620210 0.858311 32.719600
H 6.241620 33.266800 0.965672
H 6.119540 30.926600 32.586500
H 6.061570 31.622000 33.302700
H 6.412310 31.807800 32.128700
H 6.299590 32.571400 33.098200
H 6.595570 32.825500 32.177400
H 27.388800 13.751700 27.676100
H 26.615400 14.171300 27.158900
H 26.588600 14.136400 27.143600
H 27.235500 13.748600 26.445800
H 27.220700 13.713800 26.448900
H 27.203100 13.722200 26.420700
H 26.617300 14.141500 27.173200
H 27.377600 13.782500 27.676500
H 27.672800 13.553500 27.287300
H 27.266400 13.867000 28.145500
H 27.431000 13.836800 28.671600
H 27.398500 13.863900 28.672900
H 26.701700 14.311700 29.164200
H 26.657200 14.334100 29.151800
H 26.661600 14.303600 29.135200
H 26.390400 14.349200 28.137200
H 26.403700 14.385600 28.149400
H 26.427300 14.360400 28.167100
H 27.736000 13.698300 29.012100
H 27.308000 14.030600 29.897600
H 27.329700 14.011700 29.870300
H 27.366900 14.008600 29.897200
H 28.889500 12.887100 27.686400
H 28.075800 13.191800 26.188100
H 28.118900 13.312200 27.197500
H 28.118000 13.276900 27.183500
H 28.548800 13.071300 27.295600
H 28.971600 12.756700 26.490400
H 28.955200 12.757800 26.437400
H 28.953600 12.715400 26.460700
H 28.098000 13.230800 26.201100
H 28.069400 13.217600 26.162200
H 29.618800 12.412200 27.193800
H 29.623200 12.466000 27.172500
H 29.622400 12.453200 27.236200
H 28.881100 12.923400 27.715100
H 28.612000 13.216100 29.020400
H 28.931700 12.972200 28.681900
H 28.902000 13.004800 28.711500
H 29.018400 12.902600 28.162200
H 29.703200 12.582500 29.184800
H 29.696200 12.633200 29.164100
H 29.664200 12.616000 29.229100
H 29.893200 12.363600 28.190900
H 29.894400 12.420400 28.170600
H 29.875900 12.401700 28.238600
H 28.142400 13.384800 28.153900
H 28.139800 13.393600 28.194000
H 28.160300 13.362000 28.179000
H 28.202500 13.447100 29.174500
H 28.160700 13.475000 29.190400
H 29.099800 13.010200 29.909100
H 29.044100 13.038700 29.942200
H 29.081700 13.047300 29.887000
H 28.181600 13.556400 30.186900
H 28.244700 13.532200 30.169900
H 28.215500 13.551900 30.145500
H 0.727042 20.167100 21.693300
H 0.762958 20.219100 21.660100
H 1.293500 21.067900 21.924400
H 1.257230 21.018600 21.949300
H 1.199520 18.997100 23.965700
H 1.190130 18.955300 23.999200
H 1.418890 19.862600 23.515500
H 1.402180 19.819900 23.543600
H 1.064610 19.993500 22.618500
H 1.090930 20.040900 22.587800
H 1.951790 20.510800 24.013100
H 1.966240 20.549900 23.993000
H 0.871551 19.175300 23.038000
H 0.852567 19.128900 23.074100
H 1.638270 20.728200 23.065300
H 1.614220 20.684400 23.088000
H 1.857640 21.593700 22.615100
H 1.826260 21.549000 22.632400
H 2.281660 21.616000 23.559700
H 2.304220 21.655700 23.547000
H 1.547120 18.621100 25.137900
H 1.544290 18.657300 25.106500
H 0.978092 18.090800 24.454800
H 0.980145 18.131500 24.415900
H 1.746860 19.684300 24.443200
H 2.077310 19.472700 25.393900