9000
Atoms. Timestep: 0
O 6.038810 1.677880 1.811560
O 5.865180 2.697210 2.329580
O 4.575180 1.188610 3.809980
O 4.419290 2.405110 3.592740
O 0.891430 2.654790 3.623960
O 2.384770 3.669000 4.184570
O 4.081600 3.260370 3.371160
O 3.149750 3.460370 3.628720
O 5.036110 2.755860 2.836390
O 1.370450 2.424640 4.395600
O 1.580150 3.349030 4.728380
O 2.482080 3.907000 5.097500
O 2.184330 3.119710 5.493210
O 5.716350 33.236400 2.567360
O 4.882560 33.149600 3.137120
O 6.920200 1.780140 1.367750
O 6.521150 2.738290 1.627270
O 6.398090 1.396480 2.623660
O 31.137200 0.856412 4.146350
O 32.356200 2.027840 3.058550
O 32.023200 1.674190 4.322980
O 31.791900 1.372500 3.423700
O 33.111200 2.539740 2.742420
O 29.740600 0.977876 5.141580
O 30.435600 0.766856 5.722050
O 31.468500 1.309910 4.983620
O 29.271900 32.753400 4.823310
O 27.985200 32.893800 4.735590
O 28.587500 33.025100 5.424910
O 30.738200 32.992500 4.869800
O 2.435340 4.002930 2.142730
O 2.268610 3.238690 1.317120
O 2.353660 4.176100 1.122260
O 1.351160 4.293290 2.368580
O 3.017200 4.639620 1.696340
O 1.701760 3.457110 2.585710
O 4.466830 3.612230 25.067100
O 5.402400 3.823650 24.706800
O 4.821770 2.887720 25.628300
O 5.486110 5.546870 24.750500
O 5.780710 4.679020 24.988200
O 3.843830 2.411720 27.034200
O 4.699830 2.135650 27.490200
O 4.388680 2.951940 26.512800
O 4.598190 2.144220 28.471400
O 4.377020 2.496190 29.323200
O 3.184740 3.790750 29.276000
O 3.553380 3.745130 28.348200
O 4.184340 3.254390 28.832800
O 3.273980 2.839320 29.170200
O 3.675280 4.033900 30.305200
O 3.218820 2.955030 30.124100
O 4.101200 3.268940 29.974900
O 4.846060 4.174820 31.226600
O 4.647220 4.040500 30.304500
O 3.794970 2.884550 33.120000
O 2.840690 2.830800 33.222700
O 3.767530 2.966430 32.183300
O 4.671810 3.236210 32.076600
O 4.870300 4.243270 32.164300
N 3.973050 3.836940 1.891800
N 5.492630 3.427790 1.166950
N 5.348230 3.788650 2.015420
N 4.534100 3.760340 0.823056
N 6.135210 4.053620 1.522270
N 4.170360 4.601560 1.341750
N 4.633990 3.678030 2.584970
N 5.177280 1.952880 33.241200
N 6.000620 1.544810 32.937600
N 4.846490 2.848440 33.026500
N 4.240820 22.353900 2.539420
N 4.553310 21.423900 2.469420
N 4.505470 19.924300 4.336920
N 4.326920 20.751300 3.887180
N 3.561000 22.040000 4.264050
N 4.561470 21.552200 3.444480
N 4.142210 20.568800 4.993730
N 4.079730 21.845200 5.050040
N 4.730640 21.243900 4.657150
N 3.312050 22.490700 2.278520
N 3.891350 22.604200 3.552890
N 5.586350 23.204400 4.243650
N 4.792430 22.759500 3.917330
N 5.992370 22.471800 4.672050
N 5.550880 28.885500 27.238200
N 1.433700 31.164500 27.723800
N 2.120000 30.635300 27.291100
N 1.914230 31.204400 26.493500
N 3.818910 29.803500 27.093700
N 3.887580 30.710100 26.825500
N 3.119470 31.295500 26.824500
N 4.756810 29.687700 27.044200
N 2.395730 31.928200 26.863200
N 4.218390 28.548500 27.913400
N 6.094520 28.741000 27.994000
N 4.426250 29.466300 27.948100
N 5.135240 28.289900 27.872300
N 1.468960 31.199100 28.962100
N 2.281300 31.053900 28.455700
N 2.687640 31.901200 28.838100
N 3.355950 32.794100 29.369300
N 2.573980 32.354700 29.739900
N 5.722410 33.165300 32.650500
N 6.056950 33.060000 31.725400
N 6.409690 3.577130 2.284490
N 10.596500 2.586960 28.511000
N 11.391500 2.907340 29.016000
N 7.297970 1.486840 31.260600
N 7.867300 1.826110 29.852400
N 7.043830 1.722750 30.366800
N 7.856850 1.080770 30.510000
N 8.860220 1.491640 30.149500
N 9.591010 1.603400 30.789700
N 6.563890 1.271140 31.989300
N 7.770420 1.309910 32.097900
N 9.536540 2.239510 32.954300
N 9.210710 1.940100 32.129500
N 10.255300 1.758210 32.515800
N 9.941800 0.824571 32.723100
N 11.459200 1.505600 32.990000
N 9.891130 2.288950 31.565500
N 9.953230 1.300760 31.600100
N 7.235950 23.285800 1.924540
N 7.115530 24.124200 1.488050
N 7.141880 25.223200 1.978160
N 6.646420 24.877600 1.196430
N 7.624350 26.028400 1.864820
N 11.022900 25.844900 1.856440
N 7.657900 26.918100 2.316830
N 7.180490 27.367900 1.586180
N 9.215450 27.718200 1.503970
N 8.613760 26.874100 1.814750
N 9.292940 26.682300 1.137440
N 8.529750 27.470600 0.887642
N 9.300740 26.832500 2.450360
N 10.225700 26.987100 1.228630
N 10.017000 26.407400 1.995900
N 11.060300 26.571700 1.152060
N 7.336350 22.893700 2.811330
N 7.440130 23.005900 3.770930
N 10.353300 25.696900 2.614970
N 10.100300 24.429900 3.888530
N 10.454400 25.172700 3.351690
N 11.566000 25.987600 2.598810
N 11.134200 27.456100 3.609710
N 6.956560 22.443000 4.406920
N 11.272500 23.122500 23.518500
N 11.521200 23.716900 25.687600
N 11.434200 23.242000 24.475500
N 10.735400 23.693200 27.522300
N 11.254000 24.472600 27.482200
N 11.066500 23.772900 28.434400
N 11.420100 24.004000 29.277600
N 10.975300 24.872300 28.851400
N 11.052800 25.841000 28.713000
N 11.461300 25.776400 29.647200
N 6.639490 27.192600 29.117500
N 6.728540 27.120300 28.197400
N 8.388980 25.909700 30.987900
N 7.343870 27.132400 29.781700
N 6.878540 26.360800 30.862700
N 7.610020 26.041100 31.407600
N 7.869550 26.514800 30.239900
N 7.622470 27.039400 31.029800
N 6.580980 27.272200 31.144200
N 8.685630 27.142700 31.345500
N 9.436650 26.612700 31.131400
N 8.005200 27.679300 30.427800
N 10.960700 27.688400 30.868900
N 10.160900 27.237600 31.216600
N 11.088900 26.681200 30.592400
N 8.717760 26.313200 31.847800
N 7.687220 28.168600 1.384780
N 8.527430 28.412600 0.956621
N 10.879400 29.130700 0.830879
N 11.234300 28.326200 3.967070
N 11.369400 29.304300 2.639250
N 9.007610 31.195000 2.732080
N 11.396900 30.351800 3.053140
N 11.448500 30.477300 4.018350
N 8.256100 31.566500 3.148690
N 9.851560 31.587100 2.600560
N 11.386100 31.611700 3.395400
N 10.582000 31.978700 3.056220
N 9.816230 29.814300 25.690000
N 9.776850 30.784700 25.726100
N 9.550730 29.550100 26.580400
N 8.696790 29.138100 26.585400
N 8.122370 28.478000 26.958400
N 9.726150 30.719600 26.603800
N 9.338290 31.401600 27.128100
N 8.780670 30.669100 27.245600
N 7.072170 28.961200 28.286500
N 6.879250 28.028600 28.405800
N 9.557220 29.396700 29.534900
N 10.611100 28.642800 28.895000
N 10.032600 29.505300 28.735800
N 11.578000 28.979900 28.830200
N 8.949940 29.659800 28.568800
N 9.481700 30.439600 28.406600
N 8.949750 31.244100 28.071300
N 8.458680 30.385600 28.228600
N 10.404800 30.629000 28.426200
N 10.487900 30.337900 29.312000
N 10.924500 29.769900 28.558900
N 7.579560 28.610900 30.890500
N 7.676980 28.486700 29.989300
N 9.403230 28.857500 30.329300
N 8.143720 29.282900 31.392600
N 10.466200 28.313200 29.822500
N 11.265400 28.590800 30.127600
N 10.724700 29.447300 30.848300
N 10.748300 29.324100 29.877500
N 10.194900 28.671600 30.839200
N 7.957210 33.072700 31.286100
N 9.020350 31.942400 30.961000
N 9.431880 27.976700 33.141700
N 10.072600 28.514100 32.665500
N 8.691750 31.238700 32.218200
N 9.612170 30.566800 32.502200
N 9.109060 31.080500 33.140200
N 7.945790 32.752100 32.152500
N 7.075800 33.218200 32.494400
N 9.489540 31.903800 32.873200
N 8.282060 32.123400 31.516000
N 8.576390 32.057100 32.731000
N 9.360230 31.810700 31.802500
N 11.166900 33.159200 32.858000
N 10.396200 32.655200 32.160500
N 10.478500 32.522900 33.097300
N 12.720700 1.726260 30.848900
N 11.956500 2.059860 30.390900
N 11.624000 2.900640 29.999600
N 12.146200 0.929999 32.620600
N 13.414300 2.010600 31.484000
N 13.999900 1.225100 31.634100
N 14.552500 19.813800 23.424300
N 15.361800 19.686800 22.975400
N 15.433200 19.836300 24.167700
N 14.456600 19.900300 24.410000
N 16.115500 19.456700 24.760700
N 16.897700 19.677600 25.234600
N 16.025600 19.990500 25.653500
N 12.083600 21.896600 24.589500
N 13.044500 21.622100 24.741900
N 16.479800 22.215900 25.796200
N 16.162000 21.239900 25.582500
N 16.623900 21.918400 24.932200
N 15.649300 22.352300 25.367100
N 16.603900 20.304600 26.342700
N 16.889500 21.220600 26.152600
N 12.547800 25.463300 2.239660
N 12.134400 25.935300 1.538960
N 13.208300 25.693800 2.931450
N 12.318900 25.762800 4.138560
N 13.724700 25.671500 3.693060
N 15.380000 25.767200 3.976420
N 15.830900 25.908200 3.158980
N 16.221100 25.238200 3.734130
N 16.904100 25.706700 3.183280
N 11.712900 26.244900 3.486790
N 12.541300 26.805300 4.039180
N 12.004900 27.749400 3.559530
N 14.553900 26.159600 3.649810
N 11.966400 27.412700 4.440640
N 12.682000 22.483100 24.027100
N 12.033100 22.553500 23.327200
N 13.518200 24.079000 23.979400
N 13.808700 25.036900 24.048000
N 15.132900 25.649800 24.114000
N 15.818800 26.390100 23.814600
N 12.927100 23.421300 24.412700
N 12.173000 23.482300 24.977200
N 14.930800 22.868500 25.714600
N 14.806100 23.939400 25.627900
N 15.951000 24.127800 25.059400
N 15.753700 23.657200 25.891900
N 12.130200 24.367600 25.872600
N 12.566400 25.228600 25.627900
N 13.335200 24.993600 24.931200
N 15.109700 24.590900 24.927300
N 13.859000 25.542700 25.470100
N 14.737700 24.887300 25.954900
N 14.467000 25.810600 24.775100
N 15.935400 24.909700 25.804900
N 15.410000 25.547200 25.339900
N 14.995700 26.590600 24.274900
N 15.185200 27.191900 25.144200
N 15.997700 27.229100 24.610000
N 16.450200 26.425300 24.508500
N 15.752200 26.433900 25.281200
N 12.163300 23.139300 26.051500
N 13.021500 22.789400 26.297000
N 13.838300 23.211600 26.134900
N 14.484000 24.156300 26.634000
N 14.952400 24.033900 27.426100
N 14.831900 23.286400 26.595400
N 13.846100 24.128800 27.623900
N 16.576600 23.580700 26.869800
N 16.032700 22.941100 26.439700
N 11.582700 25.341100 27.809000
N 12.983900 25.528100 26.413400
N 12.256600 24.645700 27.372400
N 13.188600 24.835800 27.310700
N 16.568200 24.430100 26.372200
N 12.316000 26.185600 27.271100
N 12.862700 26.525400 26.533200
N 12.283900 27.088400 27.297400
N 12.161100 23.486100 29.644300
N 14.110500 23.726900 28.465300
N 11.894700 25.149800 29.080800
N 12.470600 25.211100 28.080400
N 14.749400 24.481000 28.279700
N 11.899200 26.144900 28.470600
N 12.041600 27.071200 28.538900
N 11.670200 26.734800 29.463000
N 12.793100 26.717500 28.012600
N 13.934000 27.526800 29.548100
N 12.851500 23.269000 30.383800
N 11.605100 27.390100 30.231000
N 11.967600 26.364200 30.357800
N 11.746000 27.819900 32.010900
N 12.028000 26.340400 33.216600
N 11.999000 27.213300 32.664100
N 11.988500 30.049200 2.294430
N 11.743000 28.956600 3.456530
N 12.234000 29.856900 3.210340
N 12.083700 31.163500 3.923240
N 13.536100 29.613700 25.470300
N 12.976900 30.391000 25.383600
N 13.697700 30.914800 25.738000
N 14.968500 30.892300 25.827100
N 14.923700 29.981300 25.490400
N 13.652900 29.540700 27.259900
N 13.348900 30.062100 26.523000
N 14.393600 30.065200 27.417200
N 14.161100 30.153900 26.153400
N 14.273000 30.921700 26.773400
N 15.120100 31.203100 27.043800
N 15.899900 30.910600 26.125900
N 16.798200 31.291000 26.093700
N 14.125600 31.651600 26.145900
N 16.410800 31.500800 27.077600
N 12.940200 29.365600 29.607200
N 12.510900 28.734900 28.930200
N 13.967100 29.828900 28.234800
N 13.980400 29.955400 29.280000
N 14.644600 30.501200 28.916900
N 15.081600 29.869200 28.297900
N 16.734200 30.298600 28.148600
N 16.488700 31.327600 28.000800
N 15.258600 30.783800 27.908800
N 12.591700 28.666300 30.204800
N 13.236300 27.945600 30.080000
N 12.897900 31.309700 31.402500
N 13.698500 32.876000 31.454000
N 13.437300 32.060900 31.127900
N 11.726700 28.780200 33.025900
N 12.035100 28.644000 32.150800
N 14.191600 30.655100 32.419300
N 14.301700 31.334100 33.066100
N 13.447700 30.561700 31.778100
N 13.219300 32.040800 32.199000
N 12.508300 32.645600 32.385500
N 14.152000 32.236900 32.187400
N 13.866600 32.218800 33.169200
N 20.775000 22.153100 3.960660
N 20.393600 21.955100 5.062100
N 21.199600 21.666700 5.484300
N 18.562500 24.049600 2.468480
N 19.037700 23.230900 2.381050
N 17.668100 23.854300 2.631370
N 17.871500 24.015200 3.779640
N 17.994500 23.194900 3.218250
N 20.055200 22.488100 3.441960
N 19.161200 22.966600 3.355680
N 17.845100 25.484100 3.624710
N 17.806700 25.994000 2.817650
N 17.268800 24.640500 3.332310
N 18.097900 24.873600 2.897080
N 20.985800 22.685500 4.768100
N 17.347300 31.080600 26.882800
N 17.202500 28.688100 28.572700
N 17.708300 28.459700 29.305600
N 18.614700 28.433300 28.811300
N 17.175500 29.480100 27.950000
N 17.867200 28.869900 27.952800
N 17.412600 31.257400 28.205200
N 17.693900 30.402100 27.910500
N 33.222300 31.127800 28.340800
O 2.399130 5.688570 3.815180
O 2.570570 6.037540 5.536450
O 2.833220 5.696060 4.663030
O 2.048100 7.085650 3.134030
O 1.893180 6.529940 3.963530
O 2.207320 6.789690 5.991440
O 1.384760 6.844700 6.432590
O 30.107500 3.837920 5.934530
O 30.879700 4.384830 6.078930
O 28.494100 5.877180 6.974990
O 29.319000 5.350000 6.725520
O 31.378300 5.203360 6.299420
O 29.750000 4.614250 6.297120
O 30.543400 5.630200 6.190210
O 29.020500 6.816080 7.161500
O 28.690500 6.433970 6.223700
O 29.601300 7.731360 7.119040
O 28.337800 7.374790 6.358440
O 28.023800 6.841320 7.056030
O 29.560900 7.097670 6.408110
O 31.001300 6.551360 7.753300
O 31.040600 6.185370 6.800290
O 31.796700 6.993120 7.952690
O 32.584400 7.325560 7.568930
O 32.993700 7.053710 6.714430
O 30.410100 7.980160 7.612960
O 30.803600 7.780290 8.494720
O 30.385100 8.522140 8.970120
O 30.422000 9.100900 8.193970
O 30.029300 9.994550 8.364310
O 1.021570 1.472140 6.144690
O 1.423120 5.900910 5.930400
O 1.118780 1.970380 6.974030
O 1.067280 2.772910 6.445380
O 0.790990 3.025370 7.351300
O 1.580650 5.329220 6.677520
O 0.742684 6.006590 6.648580
O 1.271010 4.232560 10.874600
O 32.767800 1.068330 5.671800
O 32.634300 1.942930 6.156180
O 32.619900 1.803220 7.152610
O 31.893900 2.266760 7.448440
O 33.198300 3.999170 7.447160
O 31.564800 4.217070 7.826210
O 32.749400 3.597350 6.701190
O 31.403200 5.146990 7.953820
O 32.280800 4.869640 7.591770
O 32.381400 5.533780 6.640720
O 32.355500 6.061540 7.485420
O 32.914900 4.508060 6.508270
O 33.256300 5.108690 7.185360
O 32.445600 2.539090 8.214760
O 30.906000 3.730130 8.394940
O 31.320200 4.053800 9.264770
O 32.880600 3.392270 8.303450
O 32.180400 4.209630 9.655460
O 32.026200 3.711310 8.622040
O 32.547900 4.471910 8.441780
O 33.096200 3.744210 10.414500
O 32.737700 4.638280 10.283800
O 5.431150 3.920090 7.008890
O 5.102220 4.434950 6.337280
O 4.874260 5.370950 6.477470
O 5.954880 4.362560 7.698240
O 4.360780 6.154600 6.570490
O 5.858470 3.688130 8.329610
O 5.836700 7.025350 4.822320
O 4.882380 6.848550 4.971600
O 4.626310 7.554750 5.603430
O 3.925970 6.325850 7.391130
O 4.320540 7.861100 6.456980
O 4.821660 6.208920 7.725920
O 4.857460 7.034420 6.436550
O 5.339450 6.875800 7.288410
O 7.926790 2.050970 7.349350
O 9.592890 1.711820 7.742220
O 9.257670 0.802806 7.521480
O 8.694240 1.885130 7.907970
O 7.409160 2.740210 6.982070
O 7.601740 3.125380 7.849460
O 6.348510 2.907690 8.693900
O 7.294980 3.090580 8.769350
O 6.662290 6.606150 4.695560
O 6.748580 7.458130 5.152230
O 6.624320 7.905170 5.961450
O 7.498900 8.270450 6.132040
O 9.180270 8.203320 6.146820
O 8.082330 7.691180 6.649910
O 8.824380 7.281510 6.283070
O 9.276930 32.791000 8.328240
C 4.063150 3.665230 9.468960
C 3.566130 5.225630 9.282590
C 4.237460 4.669650 9.714110
C 2.759820 5.435360 9.758450
C 4.480330 5.583660 9.716350
C 4.327490 1.402890 10.055200
C 5.382310 0.907074 11.238200
C 6.137160 1.553910 11.153400
C 4.492650 2.365940 9.827800
C 5.012460 1.568510 10.700600
C 3.802490 3.185680 11.223800
C 3.903610 3.012330 10.156300
C 3.154990 3.823670 10.943600
C 3.350080 4.784510 11.190600
C 3.944600 5.796440 11.174600
C 3.568870 5.303580 10.400800
C 4.867790 5.581370 10.618400
C 5.031740 5.603490 11.535100
C 2.537320 3.764960 12.452600
C 3.503580 4.348280 12.037200
C 2.582900 4.319420 13.265000
C 2.936070 3.171580 11.773200
C 2.480690 4.849820 12.368300
C 4.312200 4.511440 12.488600
C 3.279750 4.841760 12.898100
C 2.623290 5.482150 11.695400
C 5.769260 4.936460 12.926800
C 5.338340 6.104650 12.248800
C 4.899790 5.254310 12.672700
C 3.215990 6.288940 11.654700
C 11.422500 3.739400 3.355290
C 10.887400 4.130340 4.111290
C 11.489400 4.073170 4.828110
C 6.991670 1.258630 10.931000
C 9.289720 1.571590 11.427900
C 8.848830 0.795962 11.062900
C 9.984760 0.844881 11.416700
C 10.771200 1.396730 11.196300
C 7.465630 3.482380 11.560100
C 9.328290 3.460800 11.291900
C 9.735480 3.298310 10.484700
C 8.391930 3.800050 11.326800
C 10.597900 3.284390 10.879300
C 11.115400 2.749380 11.424100
C 7.499990 5.849810 10.566900
C 6.369030 5.621950 11.187500
C 8.289930 5.574700 10.071800
C 11.530800 5.238640 11.378300
C 11.507700 1.820010 11.592900
C 9.551680 3.616320 12.827600
C 8.874130 4.253230 12.537200
C 9.934150 4.213530 12.121000
C 10.959600 3.953590 12.047900
C 6.868740 5.961030 12.455600
C 7.214530 4.909720 12.522600
C 6.942680 5.303580 13.303900
C 6.267670 5.170860 12.119400
C 6.161220 6.103770 13.117500
C 7.727520 4.431180 11.859200
C 8.982200 6.014160 12.149600
C 8.507520 5.067950 12.340600
C 8.362420 5.783090 12.931600
C 8.042350 6.117150 12.100900
C 10.729100 4.831310 11.731100
C 11.304700 6.136570 13.379900
C 6.450530 5.813520 13.958700
C 11.011900 5.873790 14.275100
C 10.489700 9.013430 5.774110
C 11.240600 7.143250 7.957560
C 10.115400 8.283980 6.563300
C 11.453000 9.413680 6.433550
C 11.179900 8.499020 6.182100
C 10.135800 9.220710 6.631640
C 10.794400 8.669670 7.179790
C 7.837090 7.402160 8.885960
C 8.628990 7.484850 8.348310
C 11.317100 6.947900 8.951910
C 7.731280 8.357250 9.283950
C 8.010360 8.266710 8.192600
C 6.648330 6.335100 10.655500
C 8.372350 6.533510 9.995850
C 9.185350 7.944140 11.424300
C 7.626750 8.118620 10.236400
C 8.745600 9.261800 11.033600
C 8.239000 8.426370 10.894100
C 7.076950 6.601360 13.182000
C 7.538800 7.117950 12.486500
C 6.168250 6.388230 11.717500
C 8.411660 6.858610 12.803800
C 8.957610 6.983760 11.611400
C 9.740650 6.419010 11.726100
C 10.895100 7.232510 13.363800
C 11.197400 7.586210 11.898000
C 10.770100 7.897780 12.675200
C 8.610320 8.622770 11.806000
C 10.653800 7.395080 14.298100
C 10.360000 6.506540 13.908600
C 7.916230 33.058700 11.131500
C 7.356110 33.084700 10.376100
C 12.064400 3.309920 2.814150
C 12.389600 4.148410 5.228110
C 12.641700 3.214420 5.568710
C 13.035600 3.895700 6.053360
C 13.273500 4.654320 5.416440
C 13.897100 4.599540 6.153060
C 12.497600 4.199050 6.842090
C 12.231600 3.399190 6.436100
C 12.671700 2.947130 7.224220
C 13.415400 3.571580 7.025700
C 13.016300 6.080040 7.920330
C 11.918400 4.982370 6.918150
C 12.164400 5.896330 7.050840
C 13.716300 4.467480 7.065480
C 13.982500 5.648550 7.429860
C 13.108900 6.019710 9.349150
C 12.099000 5.384520 8.409010
C 12.945900 5.023080 8.698640
C 13.728700 5.343410 9.625710
C 13.688100 4.935000 8.090170
C 13.678900 5.945280 8.589640
C 13.304200 2.212070 10.618000
C 14.030400 2.190990 11.260500
C 14.344200 3.111700 11.103000
C 12.469800 5.585890 10.983100
C 12.279200 4.625130 11.567800
C 13.472700 5.950400 10.339100
C 13.984900 3.777930 11.695200
C 13.382600 4.453300 12.083000
C 13.200900 5.032880 12.955700
C 12.424400 5.217220 12.303700
C 12.799800 6.084900 11.680600
C 13.461500 5.449100 12.174900
C 13.663900 9.367270 5.875930
C 13.103400 10.130000 5.646820
C 13.977200 10.360200 5.284140
C 14.890600 10.270100 5.568140
C 11.762200 6.776680 7.199280
C 13.167200 6.425500 7.023310
C 13.898900 6.595320 7.697010
C 13.336800 9.164260 7.671590
C 11.633300 8.729470 7.635020
C 13.145000 9.320170 6.684320
C 12.518900 8.426060 7.810040
C 12.091400 6.354590 9.020720
C 11.963700 7.791130 8.218040
C 12.200100 6.880150 8.269870
C 12.253200 7.558430 9.150590
C 13.282900 9.081740 8.639180
C 12.957000 8.089230 8.729070
C 13.808800 8.376640 8.347820
C 11.718000 6.194150 11.031400
C 12.987100 7.124900 9.879080
C 12.589500 6.684980 10.590100
C 12.672100 7.571860 10.823900
C 13.862100 6.766390 9.891670
C 15.760700 7.791180 10.940400
C 16.525700 7.172840 10.979900
C 12.339500 8.044400 9.935040
C 12.424800 8.941410 10.827700
C 12.050900 8.157670 11.337600
C 13.194900 8.585860 10.129300
C 14.025000 8.140290 11.232500
C 14.852900 8.078780 10.818800
C 13.412600 9.059720 10.942500
C 12.776500 7.413280 12.586500
C 13.195200 6.926080 11.929600
C 11.649800 7.125650 12.590300
C 13.661400 7.446130 13.019100
C 13.968900 7.686340 12.120900
C 16.081900 7.354060 11.821300
C 16.200000 7.823100 12.658600
C 12.059300 8.839710 13.111700
C 11.931900 8.077030 12.620700
C 12.506100 9.768840 13.116600
C 13.235700 9.647860 12.477000
C 13.820200 9.080250 11.893600
C 14.669800 8.579670 12.034200
C 15.617100 8.325260 12.031100
C 11.945000 6.728290 13.837400
C 12.116800 9.381680 13.868700
O 5.867980 1.186510 12.415300
O 3.479180 0.886384 14.407400
O 3.570230 1.798090 14.668600
O 4.423820 1.869730 14.173300
O 5.451050 1.786650 14.066100
O 5.518000 2.733560 13.694300
O 5.114500 32.469200 13.075500
O 6.152350 31.685000 12.309800
O 6.074460 32.598700 13.050700
O 4.060380 32.606700 14.281400
O 4.636920 31.933000 14.028900
O 5.565070 32.271800 13.890800
O 7.208660 1.702610 13.179600
O 6.513850 0.923370 13.029800
O 7.200620 0.880532 12.152000
O 8.200170 2.068030 12.376400
O 8.105300 1.120020 12.264200
O 8.133060 1.802710 13.277500
O 7.034980 2.571860 13.711800
O 6.333740 3.171050 13.432000
O 6.402040 30.893100 12.752500
O 6.544980 32.186000 11.634400
O 7.072010 32.579900 12.587700
O 6.328860 33.188300 11.760400
O 7.460330 32.233500 13.421800
O 7.132700 33.128700 13.990900
O 6.320900 31.580800 13.406900
O 7.445660 32.220100 14.372900
O 8.030000 33.001800 14.233000
O 8.492380 32.293200 14.653200
O 1.201490 5.458030 13.040800
O 2.138640 5.471040 13.174300
O 2.473200 3.772850 14.538200
O 1.079120 3.868230 14.812700
O 3.658480 3.867860 14.788700
O 4.523200 3.811370 14.315300
O 1.889120 4.547510 14.923000
O 0.989373 5.757640 14.885300
O 1.536840 5.829200 14.084700
O 2.498160 5.354330 14.044700
O 0.737914 4.714460 14.629000
O 3.477090 5.466660 14.286900
O 2.802280 4.825780 14.865500
O 2.800010 6.011670 14.678900
O 4.419140 4.761640 14.729100
O 1.831910 3.543330 15.423600
O 4.322900 4.259880 16.284800
O 2.716400 3.864950 15.473100
O 2.113310 5.370560 15.388600
O 1.956970 6.093520 15.999900
O 3.879760 5.274730 16.298600
O 3.838200 5.366510 15.215000
O 3.719070 4.394590 15.587300
O 3.053180 5.109280 15.920600
O 3.140470 6.084100 15.668600
O 2.769370 5.960130 16.505000
O 4.790060 5.057300 16.603800
O 1.003050 6.350300 12.982300
O 33.042100 5.147330 13.786500
O 33.230900 6.300060 13.926900
O 0.739807 4.549300 12.512900
O 0.777427 8.219430 14.756100
O 31.309900 4.436730 12.870500
O 30.129800 4.577670 13.091800
O 32.913700 4.694810 11.608800
O 32.304400 4.754990 12.733900
O 31.498800 5.285470 13.275900
O 33.013700 5.519310 12.128400
O 32.526600 6.065210 12.829800
O 29.484800 3.411270 15.035400
O 31.428200 3.981030 13.680100
O 30.096100 3.417130 14.319500
O 30.428100 4.271020 13.953600
O 30.167500 5.304000 13.763300
O 31.132000 4.948850 14.118300
O 31.099000 5.926500 14.049000
O 32.199400 4.542920 13.646400
O 28.666300 2.482770 16.292500
O 28.017400 2.772500 15.703300
O 29.163600 3.227090 15.889100
O 30.831600 6.231980 13.183900
O 31.691000 6.539580 12.812200
O 30.416100 6.760030 14.583400
O 30.950800 6.986490 13.777000
O 29.925100 6.171910 14.118200
O 31.902700 6.355360 13.697700
O 32.473400 7.961110 14.289600
O 31.925700 7.144150 14.319800
O 32.348500 7.407570 16.033800
O 33.081800 7.771810 15.587800
O 4.462740 1.221250 16.526800
O 4.698500 2.166550 16.557700
O 3.660930 3.478130 16.771400
O 3.182060 4.260450 16.474500
O 4.701420 3.092980 16.425200
O 4.966320 3.874620 16.862100
O 3.587370 4.311300 17.318200
O 4.376360 3.468160 17.417500
O 2.443340 5.213530 17.964000
O 3.028090 5.110160 17.191900
O 2.397740 5.513200 18.888200
O 1.790130 5.538940 20.275400
O 2.470560 6.012160 19.804700
O 2.887740 5.176760 19.971600
O 2.990510 4.822550 19.084800
O 2.467540 5.733230 20.903100
O 1.628190 5.661490 21.359000
O 2.010730 4.709640 21.408300
O 3.541460 5.415500 20.969400
O 3.750070 5.484620 21.915500
O 2.935330 4.769750 21.255000
O 4.924290 5.608940 22.327100
O 5.872100 5.504400 21.979000
O 4.521810 4.895300 21.729200
O 6.105480 2.615480 22.898900
O 6.473180 3.738770 22.100600
O 6.755260 5.024450 22.116400
O 6.522650 1.779920 22.452600
O 6.683390 3.357790 22.950500
O 6.476520 4.347150 22.804400
O 1.963400 1.253550 17.300200
O 1.255050 1.126220 17.992800
O 2.347090 0.820445 18.043500
O 3.299920 1.056690 18.394800
O 1.588890 2.900710 18.407900
O 1.591470 4.584250 18.532900
O 1.044410 2.483740 19.038000
O 1.586960 1.233600 18.885100
O 2.729700 1.501420 19.132300
O 3.261670 1.916490 19.869300
O 2.414490 2.791720 18.898300
O 1.800150 3.442860 19.875700
O 2.576680 3.667710 19.241100
O 3.237210 4.234730 20.070500
O 3.247650 3.266570 20.135700
O 2.333660 4.378310 20.291800
O 1.977070 4.676550 19.413600
O 2.999460 2.494220 20.672000
O 31.680700 5.993470 16.220700
O 33.097900 1.913250 18.436600
O 32.200200 1.198750 18.626300
O 31.382700 5.642960 17.025800
O 32.749200 5.286350 17.999400
O 33.238700 4.857590 18.795600
O 32.338000 2.032470 19.036400
O 33.255800 0.903670 19.202900
O 32.857400 6.495920 16.785100
O 31.856900 6.738990 16.687800
O 32.980500 6.220060 17.681800
O 32.859000 33.139100 18.359300
S 4.201600 1.742730 17.750000
S 3.344900 2.086700 18.584600
S 5.039490 2.165000 18.618100
S 4.917150 1.285200 18.247000
S 4.094150 2.664120 18.181100
S 4.101990 2.053080 19.104200
S 3.438340 0.943685 19.649800
S 4.324270 1.661840 20.098900
S 4.194730 1.064110 19.043600
S 5.185230 2.252550 19.532000
S 5.396410 1.557860 20.224300
S 4.574430 0.778407 19.960400
S 4.023100 2.335300 20.730200
S 2.938990 2.167850 22.065500
S 5.327630 0.778835 20.802600
S 3.531570 2.850730 21.656100
S 3.911680 3.260200 20.886900
S 3.590850 1.625690 23.958400
S 2.690820 1.612900 23.625400
S 2.608910 2.669700 23.388200
S 4.270000 3.358750 24.115200
S 3.850120 2.829190 23.407100
S 2.725350 3.627340 23.496500
S 3.306830 3.465900 24.209200
S 3.382590 2.751260 22.627600
S 4.826250 3.999030 23.609200
S 3.539850 4.872640 23.158600
S 4.343350 4.850950 23.713100
S 3.660730 5.630500 23.825900
S 5.423270 4.603620 23.991500
S 2.913280 2.381730 24.289300
S 3.746610 2.299280 25.699400
S 3.398060 1.475800 24.940600
S 4.431270 1.592520 25.557300
S 4.460630 2.267360 24.880100
S 5.476620 2.167760 25.218700
S 2.755230 2.649460 25.212700
S 3.769690 4.231440 24.423800
S 3.685950 2.908340 24.982200
S 5.203790 2.820520 24.574500
S 3.644640 5.146010 24.642100
S 4.722790 4.797290 24.615600
S 3.843240 25.069800 15.169900
S 4.061400 26.916900 14.951700
S 4.395420 26.153800 14.498200
S 3.987050 24.412700 15.852200
S 4.304290 25.235300 16.206600
S 4.561700 25.703300 15.321300
S 4.947330 26.773200 15.271800
S 4.982300 27.426000 15.984900
S 4.409030 28.044100 16.405900
S 3.832660 28.904000 18.211400
S 4.120790 29.133100 17.330800
S 4.809340 28.546000 17.125600
S 1.510610 30.622600 17.569500
S 2.426590 30.263800 17.736700
S 1.899570 31.309600 18.118800
S 1.068930 31.072600 18.496400
S 1.895990 30.095000 18.541300
S 3.388760 29.678100 17.820200
S 3.578910 30.490200 17.314400
S 3.143520 31.176100 17.775300
S 3.702970 31.055500 18.592500
S 2.765140 30.462200 18.709800
S 4.026210 29.296700 19.803100
S 3.407180 29.223800 19.011200
S 2.682540 29.788800 19.366600
S 3.814690 30.238800 20.070400
S 4.526510 30.283300 19.366800
S 4.796360 31.049600 19.787300
S 5.656040 31.343200 20.255500
S 0.797638 31.491000 19.286400
S 3.558830 32.788500 20.248000
S 3.750980 32.521800 19.351800
S 3.914610 31.562000 19.393300
S 5.636430 32.746600 19.954300
S 4.807950 32.591700 19.365500
S 5.536170 30.441400 20.700500
S 3.616710 31.856800 22.318300
S 2.587800 29.530200 24.157800
S 1.775450 29.901100 23.723400
S 4.027500 31.265300 23.950000
S 2.143380 31.623200 24.173900
S 3.215370 32.462000 22.908100
S 4.182310 31.596800 23.045300
S 3.798570 32.458900 23.728500
S 2.910230 33.167000 23.494500
S 2.899400 32.089600 23.859800
S 0.871426 29.325700 25.189300
S 2.046160 29.033600 24.711400
S 1.154220 29.049500 24.365700
S 3.509950 28.584600 25.879300
S 3.522680 29.368800 25.282600
S 1.534500 30.057300 24.659400
S 2.292660 30.738000 24.525500
S 4.349420 29.885800 25.195800
S 4.098250 30.912900 24.830900
S 4.596390 31.126000 25.693600
S 3.649740 33.162100 24.388400
S 3.570480 33.148100 25.399600
S 3.138090 29.234200 26.511200
S 2.761160 29.552100 27.302100
S 3.983150 29.910900 26.073400
S 4.820230 30.347100 26.141900
S 2.567470 29.892800 28.182100
S 7.842550 1.415480 19.500300
S 7.661710 2.356630 19.418600
S 6.901510 29.024000 18.018300
S 7.101020 30.644900 18.677500
S 7.763150 31.452000 17.261900
S 6.549400 29.913700 18.422800
S 8.301670 30.683400 17.610100
S 8.688110 30.241100 18.782900
S 9.528930 30.398200 18.347200
S 9.320410 31.104900 17.677500
S 8.158350 31.132900 18.468900
S 7.143240 32.138800 17.623500
S 6.866100 32.714300 18.341900
S 7.021990 31.603500 18.580900
S 8.827700 31.879200 17.989600
S 8.048950 32.292000 18.346400
S 6.952590 29.033200 18.946200
S 8.400490 29.569700 19.388300
S 7.288750 30.842300 20.362000
S 7.579320 29.781300 19.051400
S 6.790350 31.213400 19.637500
S 7.454200 33.256900 18.895300
S 7.821080 31.475800 19.274000
S 7.766350 31.653200 20.212600
S 6.939310 32.166800 19.366000
S 8.645720 31.920700 19.769500
S 8.741180 32.506400 19.014300
S 6.645270 31.272500 22.092400
S 6.281560 29.850200 20.810500
S 7.041950 30.168000 21.328600
S 7.428010 29.658200 21.979400
S 8.366020 29.845200 22.138600
S 8.248760 31.867000 21.397900
S 8.516740 32.544700 20.742900