950
Atoms. Timestep: 0
H 9.430080 29.108500 0.924218
H 9.422020 29.069600 0.847521
H 10.066700 29.496700 1.642430
H 10.050900 29.454400 1.574350
H 10.744100 30.188600 0.855755
H 10.862100 30.107500 1.899690
H 10.839900 30.068200 1.843870
H 10.760600 30.217400 0.910926
H 11.577600 30.746500 1.583860
H 9.230490 29.310500 31.399300
H 9.719180 29.871600 30.679500
H 9.715120 29.877500 30.745300
H 11.251500 31.158000 30.729900
H 11.245800 31.163600 30.689000
H 10.456800 30.549900 30.419400
H 10.456100 30.547200 30.472700
H 10.552600 30.429500 31.407600
H 9.227080 29.328400 31.474700
H 9.121720 29.017000 32.386200
H 9.122750 29.046900 32.465500
H 10.557600 30.437300 31.461400
H 10.659100 30.327300 32.450200
H 10.035200 29.689300 32.885600
H 11.261600 30.928700 31.905700
H 9.939430 29.809800 31.897500
H 11.273600 30.936800 31.949200
H 11.375100 30.826800 32.937900
H 9.943090 29.827900 31.962500
H 10.044600 29.717900 32.951200
H 11.357300 30.808300 32.893900
H 10.648400 30.309000 32.395700
H 14.518900 26.003400 27.489800
H 14.468200 25.034700 27.442600
H 14.546000 25.010100 27.377300
H 14.466500 26.030800 27.531000
H 15.262600 25.373400 26.724300
H 15.203900 25.362700 26.792100
H 15.105000 27.577500 27.067000
H 15.132100 26.584200 26.954500
H 15.103100 26.581800 26.991300
H 15.101400 27.577900 27.079700
H 14.491700 26.996700 27.602400
H 14.464800 27.026900 27.619400
H 15.939400 27.191000 26.236100
H 15.937000 27.149100 26.271000
H 15.741500 26.136700 26.363300
H 15.772600 26.171700 26.306600
H 13.265100 25.835000 28.673000
H 13.191600 25.925000 28.698700
H 13.814900 25.179000 28.090500
H 13.731700 25.240500 28.140400
H 13.044000 26.802300 28.968600
H 12.992700 26.904700 28.967700
H 13.210800 27.821600 28.898100
H 13.851300 27.409100 28.250200
H 13.826500 27.472100 28.247400
H 13.878400 26.415800 28.137700
H 13.828200 26.476000 28.159000
H 12.066300 31.307600 0.863989
H 12.091100 31.326300 0.897635
H 11.603100 30.777200 1.627080
H 14.464500 27.990000 27.714900
H 14.463100 28.023000 27.707800
H 15.168500 28.814300 27.114200
H 14.461400 29.019200 27.796200
H 14.437400 28.983300 27.827500
H 15.738000 28.128900 26.540100
H 15.197900 28.813300 27.098300
H 15.718300 28.158300 26.531700
H 13.188200 27.917200 28.875500
H 13.725800 28.691200 28.446700
H 13.720800 28.619900 28.480400
H 11.888100 31.546200 31.448100
H 11.874700 31.548400 31.415800
H 12.195500 31.607800 32.434900
H 12.175000 31.601100 32.405200
H 10.955200 4.348550 10.817500
H 10.996600 4.339710 10.798200
H 9.982160 4.239290 11.153900
H 10.020000 4.228910 11.123500
H 9.259700 5.800390 10.950900
H 9.302330 5.793260 10.928700
H 9.083010 4.631800 11.301400
H 8.398450 5.449630 11.318700
H 8.436750 5.440440 11.284100
H 9.046330 4.642320 11.337300
H 10.051500 5.195220 10.868500
H 10.167900 6.146070 10.573200
H 10.093900 5.187490 10.848400
H 10.959500 5.540300 10.492900
H 10.912800 5.545970 10.500700
H 10.120900 6.151140 10.583100
H 8.254350 6.438160 11.076400
H 8.212110 6.444910 11.103000
H 9.376300 6.751830 10.653500
H 9.329090 6.756310 10.665500
H 8.537240 7.361480 10.747900
H 8.584690 7.357600 10.733800
H 9.286720 7.953730 10.348700
H 9.339260 7.952420 10.348200
H 11.195500 7.659960 9.828880
H 11.252800 7.660330 9.845070
H 10.982200 6.501900 10.215300
H 10.241900 7.104640 10.298100
H 10.190300 7.107060 10.297700
H 11.033500 6.498870 10.217800
H 10.259700 8.062990 10.012300
H 10.315900 8.063220 10.022900
H 11.751100 4.934530 10.412600
H 12.081500 5.853970 10.070100
H 11.704600 4.940800 10.418300
H 12.029800 5.857370 10.063200
H 11.899100 6.851690 9.862320
H 11.843400 6.852650 9.847510
H 5.731520 0.911643 21.788300
H 5.799310 0.935196 21.743600
H 5.880640 1.886550 21.446300
H 5.811870 1.867390 21.505200
H 5.401920 1.932280 22.363100
H 5.308840 1.897190 22.409600
H 5.007890 1.455930 23.193600
H 4.897530 1.406820 23.223400
H 5.993520 30.542600 21.733200
H 6.034040 30.563400 21.718500
H 6.154350 32.727200 21.167200
H 6.108340 32.714200 21.212300
H 5.651180 32.483900 22.071400
H 5.717980 32.511900 22.040800
H 6.028000 31.758500 21.495400
H 5.570830 31.528200 22.354500
H 6.073030 31.775800 21.464400
H 5.636650 31.560500 22.338100
H 5.555330 30.609200 22.635300
H 5.490490 30.572400 22.637600
H 5.030510 31.114400 23.390200
H 5.120190 31.164700 23.392900
H 5.362940 33.247900 22.617200
H 5.274360 33.209400 22.647400
H 4.688170 33.055700 23.728500
H 5.194010 32.253700 22.930500
H 5.281610 32.296600 22.914500
H 4.845240 32.081300 23.788100
H 4.736840 32.023400 23.789500
H 4.804130 33.113200 23.715200
H 6.315770 1.330990 20.688800
H 6.271840 1.325410 20.752500
H 6.565510 32.944500 20.353200
H 6.614180 31.912200 20.414300
H 6.631830 31.910600 20.366400
H 6.590720 32.942500 20.293500
H 6.428070 31.039800 20.888000
H 6.404820 31.033000 20.919400
H 29.293600 29.334200 21.940300
H 29.331100 29.380900 21.904000
H 29.375900 29.344200 21.880400
H 29.348600 29.361500 21.838300
H 29.361900 29.398900 21.896300
H 30.298300 29.203400 21.457700
H 30.324100 29.195400 21.492400
H 30.237500 29.164300 21.550400
H 30.312500 29.239400 21.518500
H 30.279300 29.218000 21.521700
H 31.216100 29.574600 21.154600
H 31.196100 29.585300 21.211200
H 31.151500 29.525600 21.225000
H 31.227400 29.610600 21.207000
H 31.235900 29.575500 21.182600
H 28.645300 29.982000 22.242600
H 28.572700 29.989800 22.290200
H 29.245400 31.072200 22.089300
H 29.416700 30.575700 22.013400
H 28.621400 30.006600 22.194700
H 29.404800 30.632900 22.002600
H 29.383700 30.613400 22.022500
H 29.349300 30.568300 22.040500
H 28.630300 30.046200 22.239200
H 28.605500 30.030300 22.255600
H 29.763800 30.270100 21.792900
H 30.179200 31.219600 21.766000
H 30.125900 31.146700 21.790900
H 30.162000 31.196600 21.789400
H 30.179100 31.178700 21.747500
H 30.256100 30.182400 21.638300
H 30.220700 30.207300 21.655600
H 30.697600 30.376600 21.451000
H 30.998900 30.790400 21.422500
H 31.027500 30.776100 21.409000
H 30.958300 30.734000 21.421000
H 31.020400 30.816200 21.405700
H 31.112800 31.285300 21.405600
H 30.181700 30.155500 21.670600
H 30.245900 30.229500 21.642200
H 30.188100 31.169400 21.784200
H 32.027000 31.400900 21.096600
H 32.048100 31.400700 21.086300
H 31.983800 31.338100 21.075500
H 32.044800 31.431300 21.076700
H 31.835900 30.384300 21.055600
H 31.861500 30.412900 21.045300
H 31.856000 30.375600 21.010500
H 31.866900 30.382700 21.033900
H 31.790700 30.321300 21.051100
H 32.046500 31.391800 21.063800
H 29.131100 32.828700 22.325000
H 29.140200 32.763200 22.385800
H 29.338100 31.623000 22.126400
H 29.325100 31.602700 22.156400
H 29.293500 31.559500 22.160700
H 29.100300 32.767900 22.356800
H 29.348600 31.562700 22.159300
H 29.142100 32.782900 22.340300
H 29.127800 32.807900 22.367700
H 30.014300 33.129100 22.031300
H 30.044600 33.175100 22.057200
H 30.059900 33.154100 22.037300
H 31.009600 32.996000 21.656600
H 30.958200 32.959300 21.641400
H 31.000200 32.994600 21.687900
H 30.103300 32.185900 21.923300
H 30.594300 32.087300 21.702000
H 30.992900 33.012200 21.674900
H 30.996600 33.040400 21.635700
H 30.940200 31.779700 21.556400
H 30.959500 31.763000 21.554900
H 30.902500 31.725200 21.541200
H 30.953700 31.806300 21.529400
H 30.112600 32.209700 21.889800
H 30.120000 32.156400 21.930000
H 30.070100 32.137900 21.911100
H 30.046000 33.199800 22.013500
H 29.660600 31.980800 22.043900
H 30.052000 33.143400 22.075900
H 31.718500 32.362800 21.323300
H 31.728200 32.393100 21.292800
H 31.679100 32.303700 21.291600
H 31.730900 32.356700 21.325700
H 31.736700 32.350900 21.300300
H 28.296900 30.992200 22.482300
H 28.268000 30.955400 22.506200
H 28.328000 30.938000 22.482000
H 28.313700 31.007900 22.455300
H 28.311600 30.965700 22.431200
H 28.461100 31.972200 22.530600
H 28.488100 32.008900 22.523300
H 28.497000 32.026400 22.486700
H 28.502200 31.981900 22.484500
H 28.509200 31.956000 22.534400
H 27.317900 10.716100 26.194800
H 26.647300 10.504300 26.955700
H 27.460800 10.081800 27.249900
H 27.480100 10.039600 27.256700
H 26.631000 10.553800 26.952200
H 27.337700 10.678100 26.204100
H 27.378300 8.978330 29.222300
H 27.361400 9.032230 29.221900
H 27.491800 9.548960 28.128000
H 27.473400 9.595700 28.123800
H 26.656100 9.581600 28.699900
H 26.670700 9.522900 28.698200
H 26.403100 10.081400 27.868600
H 26.388700 10.138500 27.869100
H 29.247500 10.171700 25.893200
H 29.219900 10.187400 25.873400
H 28.265500 10.582000 25.800000
H 28.289500 10.556400 25.815200
H 29.107900 9.623910 26.971500
H 29.134000 9.601080 26.987500
H 28.290600 9.609800 27.547700
H 28.312900 9.575020 27.557700
H 29.955000 9.627140 26.417200
H 29.925200 9.638010 26.395400
H 30.192600 9.081080 27.226200
H 30.222600 9.068600 27.246900
H 28.278100 10.095900 26.673800
H 28.301200 10.065700 26.686500
H 29.263300 8.503500 28.900500
H 29.288000 8.471910 28.911400
H 28.315700 8.637620 29.295300
H 28.336300 8.593640 29.300300
H 28.324600 9.084330 28.429000
H 28.303200 9.123710 28.421500
H 29.145700 9.110390 27.858800
H 29.120500 9.137810 27.845400
H 29.978500 8.645760 28.159800
H 29.950300 8.665820 28.143100
H 27.736800 12.618200 15.414800
H 28.747500 10.961600 14.930700
H 29.729700 10.648800 15.027200
H 30.701400 10.827800 15.336200
H 31.402400 11.450800 15.774900
H 29.710200 11.566600 15.423700
H 28.018000 11.682400 15.072600
H 28.854400 12.083400 15.446400
H 28.834900 13.001300 15.843000
H 30.527100 12.885400 16.194100
H 30.546600 11.967600 15.797600
H 29.690800 12.484400 15.820300
H 31.363500 13.286400 16.568000
H 31.644700 12.350700 16.225700
H 28.680100 14.141000 16.304400
H 27.979100 13.518100 15.865700
H 29.651800 14.320100 16.613400
H 30.634000 14.007300 16.709800
H 29.671300 13.402300 16.216800
H 7.915740 19.242400 2.379310
H 7.903540 19.218600 2.366650
H 8.990870 19.975500 0.868330
H 9.015290 19.994700 0.887600
H 8.336790 19.461000 1.459100
H 8.319310 19.437700 1.444160
H 9.132390 20.301400 1.803120
H 9.156440 20.315900 1.824050
H 9.738260 20.688000 0.793450
H 9.769430 20.700600 0.817945
H 9.847370 21.013300 2.014650
H 9.817570 21.005800 1.988740
H 10.361200 21.384200 1.239580
H 10.397100 21.389500 1.268800
H 10.730200 21.876800 2.119360
H 10.692900 21.877600 2.087190
H 7.864960 19.397500 3.401660
H 7.854960 19.376900 3.388610
H 8.606670 19.939800 2.569910
H 8.588730 19.922900 2.552270
H 8.186590 19.870300 4.236220
H 8.198060 19.884800 4.252220
H 8.730250 20.248800 3.487060
H 8.747830 20.261000 3.506360
H 9.297600 20.637200 2.760510
H 9.273910 20.627300 2.737900
H 9.438760 20.958400 3.696960
H 9.415430 20.953200 3.672690
H 9.988530 21.334500 2.951110
H 9.959100 21.331600 2.923530
H 10.258400 21.813300 4.061920
H 10.228500 21.816900 4.031640
H 10.679500 22.031900 3.141710
H 10.644300 22.036000 3.109160
H 8.809560 20.566600 4.682350
H 8.825770 20.573700 4.703070
H 9.556960 21.279000 4.607470
H 9.579920 21.279600 4.633420
H 28.167000 19.845300 7.449480
H 28.170800 19.834200 7.451300
H 28.104600 18.885500 7.860350
H 29.118000 19.549500 7.599370
H 29.109300 19.548700 7.604850
H 28.085200 18.903800 7.872180
H 29.869900 20.146900 7.352520
H 29.868700 20.162800 7.353510
H 31.012200 18.980100 7.895500
H 30.993800 18.955300 7.915600
H 30.065100 19.264800 7.747430
H 30.051500 19.252000 7.760220
H 30.815800 19.878000 7.501570
H 30.812200 19.850200 7.507900
H 31.566500 20.491300 7.255710
H 31.572800 20.448400 7.255570
H 32.025600 19.644200 7.634510
H 32.017900 19.600200 7.648270
H 28.744600 20.630400 7.121590
H 28.753700 20.627900 7.110040
H 29.688200 21.041800 6.944820
H 30.720100 20.976100 6.998090
H 30.705100 21.009800 7.008670
H 29.672200 21.060700 6.959580
H 29.425100 17.519900 8.486200
H 29.383000 17.527900 8.522360
H 28.530300 18.055600 8.264880
H 28.563700 18.038400 8.239150
H 29.290900 18.653800 8.012550
H 29.314400 18.651600 7.993290
H 30.233200 18.357100 8.167920
H 30.261500 18.366900 8.141360
H 30.458000 17.469000 8.535290
H 30.414900 17.462200 8.575620
H 31.385600 17.899200 8.373280
H 31.349400 17.876100 8.410410
H 31.936100 18.658600 8.070970
H 31.959400 18.695400 8.043570
H 2.000180 14.755300 22.182200
H 2.506490 14.773900 21.279400
H 3.313340 15.085100 20.710200
H 3.916340 15.735500 21.575800
H 4.204540 15.605400 20.627100
H 3.067320 15.319800 21.902000
H 4.941300 16.195400 21.052500
H 4.477170 16.281300 22.198400
H 5.326200 16.697000 21.872300
H 1.930090 15.034100 23.176800
H 2.314990 15.535700 23.996600
H 3.339950 15.995600 23.473300
H 2.779120 15.449800 22.850700
H 3.628150 15.865600 22.524600
H 4.188970 16.411400 23.147200
H 4.749800 16.957200 23.769700
H 5.256110 16.975900 22.866900
H 3.942950 16.646000 24.339000
H 3.051750 16.125700 24.422000
H 5.124430 16.844600 27.720400
H 4.836960 16.717800 28.669800
H 5.326840 16.075200 29.259000
H 4.549480 16.591000 29.619100
H 5.779050 16.141800 28.107000
H 6.104200 15.559400 28.898800
H 4.262000 16.464200 30.568500
H 6.012760 15.253400 29.883600
H 5.039360 15.948400 30.208300
H 5.529240 15.305800 30.797500
H 4.783190 15.702500 31.395700
H 3.974520 16.337300 31.517900
H 4.315760 17.479400 27.842600
H 3.086190 17.928500 29.354700
H 4.059590 17.233600 29.030000
H 3.569710 17.876200 28.440800
H 3.772120 17.106700 29.979300
H 2.994760 17.622500 30.339500
H 3.319910 17.040100 31.131300
H 9.573740 21.907500 14.994500
H 9.580300 21.877400 15.015200
H 9.736720 20.125100 15.887200
H 9.759050 20.107600 15.929600
H 10.341600 19.730500 16.628900
H 10.378300 19.722500 16.664500
H 9.466940 20.896300 15.325900
H 9.455650 20.922000 15.289000
H 10.200500 21.274000 15.855800
H 10.223500 21.255200 15.872600
H 10.502300 22.221800 15.752700
H 10.945300 21.626000 16.422700
H 10.643500 20.678300 16.525800
H 10.679200 20.668300 16.541800
H 10.980200 21.614100 16.419200
H 10.524500 22.201000 15.749900
H 11.108300 19.843700 17.315400
H 11.158900 19.844300 17.333600
H 11.435900 21.027200 17.088500
H 11.388300 21.030300 17.092700
H 11.418200 25.091600 7.884340
H 11.429500 25.081800 7.892170
H 11.005900 24.968100 6.733050
H 10.958700 25.010300 6.736180
H 10.590400 24.614800 7.613080
H 10.576400 24.622700 7.616770
H 11.146600 24.637800 9.533750
H 10.624600 24.511900 8.642680
H 10.645200 24.486400 8.640750
H 11.099300 24.686700 9.545960
H 10.059300 22.817600 15.082700
H 10.068800 22.787900 15.080600
H 11.281100 22.559800 16.296600
H 10.801400 23.383800 15.504800
H 10.782300 23.408400 15.530000
H 11.247200 22.573800 16.319600
H 11.549000 23.521600 16.216500
H 11.736800 21.972900 16.965800
H 11.690200 21.978100 16.989600
H 11.891600 20.440300 17.757800
H 11.831300 20.434500 17.762700
H 12.493400 22.331800 17.512500
H 12.316900 21.344600 17.850900
H 12.435000 22.330100 17.556400
H 12.380000 21.350700 17.823200
H 12.650000 26.004900 6.261630
H 12.014200 25.512800 7.204820
H 11.974900 25.552900 7.193430
H 12.816700 26.021800 7.461010
H 12.853300 25.979700 7.483910
H 11.759700 25.476900 6.238380
H 11.689800 25.545300 6.234940
H 12.573600 26.084400 6.247350
H 13.373300 26.483100 6.770090
H 13.438000 26.410700 6.796560
H 13.912700 26.585600 7.699850
H 13.874800 26.634500 7.663090
H 11.684000 25.117700 8.858610
H 11.703300 25.099200 8.842830
H 12.260000 25.560500 8.151920
H 12.268700 25.548700 8.171260
H 12.523100 25.584600 9.137700
H 12.545100 25.568000 9.110410
H 13.101800 26.029300 8.419500
H 13.107800 26.015600 8.450350
H 13.561200 26.110600 9.567660
H 13.531400 26.129400 9.609480
H 13.946900 26.482600 8.729450
H 13.943600 26.498200 8.687070
H 11.946400 25.036500 10.056500
H 11.887400 25.092500 10.080900
H 12.830200 25.575600 10.068900
H 12.777600 25.620600 10.104100
H 16.585700 25.287100 14.020100
H 16.648600 25.224600 13.993700
H 15.988500 25.959100 14.304800
H 15.787800 26.803500 14.869100
H 16.732600 26.654800 15.072700
H 15.780000 26.898000 14.889600
H 15.950500 26.043200 14.331000
H 16.745200 26.586500 15.059600
H 11.582000 23.505600 16.173900
H 12.201300 23.120500 16.908800
H 12.153900 23.127000 16.958200
H 16.100100 27.531600 15.535600
H 16.120000 27.622500 15.546300
H 16.841900 27.948300 16.125500
H 16.879400 28.022600 16.125200
H 19.543800 19.547600 7.927410
H 19.616800 19.540700 7.948270
H 19.754400 20.560900 7.956990
H 19.579500 18.609900 8.399930
H 19.541100 18.594200 8.475480
H 19.525700 18.621800 8.390310
H 19.733300 18.008500 9.228550
H 19.704800 18.031300 9.221660
H 19.710500 18.028400 9.325810
H 19.574600 19.503900 7.982450
H 19.954700 19.690200 8.877520
H 19.936700 19.690900 8.895690
H 19.902900 19.710600 8.846390
H 19.983400 18.952500 9.493520
H 20.013000 18.924100 9.517660
H 20.004600 18.953200 9.567360
H 19.835200 20.551700 7.994600
H 19.802300 20.513900 7.978830
H 20.234500 20.605700 9.166630
H 20.262000 19.873600 9.765370
H 20.101000 21.389900 8.471120
H 20.162900 21.353400 8.465570
H 20.176200 21.371800 8.526500
H 20.181500 20.631800 9.118250
H 20.230800 20.615700 9.137250
H 20.559900 21.797600 9.312270
H 20.548400 21.781400 9.401440
H 20.490700 21.812700 9.332040
H 20.423000 18.357300 11.059600
H 20.409200 18.307500 11.087000
H 20.434600 18.402400 11.152300
H 20.037500 17.958200 10.305600
H 20.033300 17.934500 10.198700
H 20.036900 17.897900 10.212100
H 20.298700 19.877900 9.808920
H 20.292700 19.839600 9.806770
H 20.350900 19.073600 10.446900
H 20.366700 19.140200 10.480600
H 20.342500 19.115500 10.412500
H 20.660800 20.064900 10.722200
H 20.630600 19.989100 10.736000
H 20.621100 20.036600 10.684400
H 20.769600 19.186400 11.573800
H 20.592900 20.802700 10.050500
H 20.572400 20.755200 10.095900
H 20.540600 20.794800 10.037200
H 21.005900 21.069400 11.213600
H 20.887000 21.727500 10.292000
H 21.056400 21.161700 11.142400
H 20.852100 21.670700 10.385000
H 20.998400 21.125500 11.140400
H 20.819200 21.715900 10.309100
H 20.750200 19.127600 11.618900
H 20.980200 20.199600 11.603300
H 20.968600 20.138600 11.665300
H 21.022800 20.251900 11.635400
H 20.795200 19.242000 11.639000
H 17.591100 24.796900 14.019300
H 18.490900 24.800800 14.386300
H 18.563400 24.790600 14.374700
H 17.515600 24.832300 14.040400
H 17.135400 25.849400 14.637900
H 17.175600 25.797000 14.621900
H 18.088000 25.606200 14.821000
H 18.133000 25.580000 14.812400
H 19.250300 25.200800 14.965200
H 19.305200 25.207300 14.964600
H 19.617500 25.935400 15.631100
H 19.590300 25.925400 15.621900
H 18.784600 27.536300 16.491400
H 18.756700 27.514300 16.506500
H 18.660100 26.152400 15.440600
H 18.234900 26.974000 15.873600
H 18.229700 26.941900 15.878300
H 17.702600 26.369400 15.250100
H 17.685100 26.411700 15.255800
H 17.282300 27.217100 15.690500
H 17.272300 27.158900 15.687800
H 18.637700 26.168500 15.438800
H 19.419800 26.780200 16.180600
H 19.416700 26.779800 16.195500
H 17.814200 27.942000 16.480900
H 17.854700 27.991000 16.471100
H 1.978580 23.782500 14.953000
H 1.449620 23.540700 14.096500
H 1.126730 23.374400 15.281400
H 2.051030 23.805600 15.985500
H 1.647570 23.603800 16.917300
H 0.961231 23.285000 16.263600
H 0.876300 23.231200 17.498800
H 31.430300 22.328800 14.302300
H 31.026800 22.127000 15.234200
H 31.099200 22.150100 16.266700
H 31.628200 22.391900 17.123200
H 32.201500 22.701400 13.720800
H 33.133900 23.145000 13.645500
H 32.968400 23.055700 14.627600
H 32.116600 22.647600 14.956100
H 32.802900 22.966300 15.609800
H 31.951100 22.558200 15.938200
H 32.637400 22.876900 16.592000
H 32.471900 22.787600 17.574200
H 19.974400 20.157800 25.554800
H 19.952800 20.139600 25.706700
H 20.662600 20.521600 24.872200
H 20.625500 20.466600 24.991000
H 20.648000 21.196600 25.609900
H 20.971900 21.528700 25.527800
H 21.233300 22.005900 25.558800
H 21.342900 21.247200 24.584900
H 21.302500 21.173500 24.653400
H 21.833100 22.140100 24.770000
H 21.802300 22.070600 24.784300
H 21.316100 22.400800 25.875500
H 19.464500 20.279900 26.608800
H 19.462900 20.253100 26.449800
H 20.310700 22.239100 27.276600
H 19.966400 21.366900 26.928800
H 20.297000 21.011700 26.054400
H 19.291600 20.850000 27.455500
H 20.033700 21.737300 27.136400
H 19.265100 20.782100 27.317500
H 20.048200 21.062400 26.398700
H 20.633500 21.871600 26.347600
H 20.641300 21.883900 26.402200
H 19.480300 21.697100 28.020000
H 19.433900 21.603100 27.925300
H 21.990900 22.917800 25.348800
H 22.001900 22.961100 25.377800
H 20.604400 23.221600 27.823100
H 21.804000 23.490100 26.245400
H 21.818000 23.487900 26.195500
H 20.618900 22.546600 27.085300
H 21.218800 22.680900 26.296500
H 20.985500 22.756000 26.749900
H 21.329700 23.628200 27.097600
H 21.292500 23.585500 27.140500
H 20.657000 23.301100 27.813300
H 19.924100 22.496000 28.110300
H 19.980100 22.594300 28.151000
H 23.978500 16.570700 21.349700
H 23.998500 16.537300 21.312500
H 23.907400 16.598600 21.317800
H 23.974000 16.599100 21.344400
H 25.668200 16.993600 21.248600
H 25.886900 16.138200 21.703400
H 24.890200 16.092800 21.593800
H 24.862100 16.121300 21.647900
H 24.786400 16.135800 21.609300
H 24.854200 16.134400 21.629400
H 25.922200 16.122900 21.669800
H 25.818400 16.142200 21.691800
H 25.894200 16.138500 21.728400
H 26.798000 16.617800 21.569600
H 26.818200 16.619600 21.520100
H 26.726800 16.616000 21.543200
H 26.795300 16.609400 21.546500
H 23.510400 18.343600 20.483000
H 23.490400 18.278800 20.470200
H 23.500000 18.295200 20.456800
H 23.446200 18.343100 20.455300
H 25.126600 18.759000 20.398000
H 25.176500 18.725200 20.388900
H 25.191400 18.754900 20.411300
H 25.160100 18.735000 20.406400
H 26.134300 18.509100 20.578300
H 26.147800 18.524500 20.590800
H 26.082100 18.530800 20.585000
H 26.122000 18.527800 20.585000
H 23.987600 19.157500 20.115400
H 24.033400 19.108200 20.101200
H 24.051200 19.156000 20.137400
H 24.010100 19.109000 20.134900
H 24.937300 19.587500 19.942400
H 24.906000 19.605800 19.985200
H 24.959600 19.627200 19.980600
H 24.896000 19.631300 19.966700
H 25.928000 19.637700 20.049200
H 25.938100 19.635900 20.061200
H 25.992200 19.631000 20.054600
H 25.969300 19.604700 20.022900
H 26.807100 19.174900 20.340700
H 26.872400 19.166300 20.339600
H 26.853000 19.155300 20.321100
H 26.829800 19.191300 20.342500
H 23.416800 17.406500 20.895400
H 23.486100 17.337500 20.901300
H 23.482200 17.407700 20.924800
H 23.479900 17.366500 20.913800
H 25.655000 17.010500 21.272700
H 24.457900 18.079100 20.646100
H 24.452300 18.071500 20.648900
H 24.466800 18.113100 20.662500
H 24.401700 18.114900 20.642300
H 25.587800 17.014500 21.260500
H 24.697100 17.216900 21.092600
H 24.706300 17.200800 21.070000
H 25.357200 17.886800 20.829300
H 25.423200 17.882700 20.842000
H 25.415700 17.863000 20.835400
H 25.414100 17.864300 20.827500
H 24.632300 17.242700 21.073500
H 24.698600 17.240900 21.093200
H 25.654900 17.000800 21.281900
H 27.364300 18.357700 20.759200
H 27.342100 18.391200 20.753700
H 27.268200 17.430400 21.203200
H 26.376000 17.657100 21.006100
H 26.312700 17.658600 21.016200
H 26.379600 17.652300 21.021500
H 26.373600 17.646900 21.024800
H 27.337900 17.449900 21.184800
H 27.331400 17.430800 21.214100
H 27.336100 17.421800 21.200900
H 27.297600 18.367000 20.763100
H 27.351600 18.359500 20.757100
H 27.218100 28.794200 2.275280
H 27.176000 28.800500 2.326910
H 26.507400 29.356800 2.775460
H 26.478300 29.379300 2.826910
H 27.735800 29.515900 2.734770
H 27.707700 29.524500 2.766360
H 27.777600 30.944000 3.756570
H 27.259000 30.196500 3.291070
H 27.245900 30.219900 3.317120
H 26.264500 30.155400 3.387870
H 26.252500 30.191100 3.428440
H 26.559100 31.018300 3.970310
H 26.554600 30.976100 3.948400
H 27.776700 30.918300 3.750560
H 27.315800 31.639300 4.307330
H 27.299900 31.598900 4.306860
H 29.207100 28.876400 2.081670
H 29.162800 28.857900 2.104270
H 28.206200 28.618300 2.021330
H 28.158600 28.609600 2.062410
H 29.919600 29.478900 2.441300
H 29.952400 29.499200 2.440130
H 28.730300 29.557000 2.637970
H 28.701100 29.553300 2.655040
H 28.239300 30.248600 3.205800
H 28.253500 30.237600 3.194270
H 29.232700 30.277400 3.094480
H 29.248000 30.278700 3.097460
H 28.771200 30.959400 3.653760
H 28.771000 30.972700 3.645250
H 30.242500 30.319800 3.000660
H 30.226100 30.306100 2.983170
H 29.999600 31.118500 3.613070
H 30.000300 31.117900 3.584690
H 29.288900 31.681100 4.113260
H 29.302600 31.696800 4.084700
H 28.320000 31.887600 4.349200
H 28.300800 31.857000 4.367200
H 18.766200 1.214980 5.942800
H 18.750900 1.216150 5.974170
H 18.756500 1.237070 5.934540
H 19.624100 1.794570 5.935140
H 19.614300 1.816590 5.920990
H 19.600400 1.807530 5.952310
H 18.326200 1.103280 7.649610
H 18.331800 1.104050 7.608480
H 18.553500 1.207470 7.163730
H 17.997600 0.748313 6.508560
H 17.999800 0.754692 6.464860
H 17.997200 0.771682 6.462380
H 18.940200 1.450030 6.894210
H 18.930500 1.446670 6.930560
H 19.365700 1.727410 6.898870
H 19.732300 2.008960 7.139610
H 19.714300 2.020580 7.167890
H 19.110000 1.677190 7.886940
H 19.919400 2.180190 7.597740
H 20.318500 2.363980 6.448830
H 20.343400 2.338180 6.443950
H 20.340700 2.354940 6.425350
H 19.123900 1.662980 7.853880
H 19.107300 1.660250 7.862600
H 20.712800 2.736400 7.330690
H 20.731500 2.700130 7.332880
H 20.741100 2.707880 7.312490
H 18.295100 1.140310 8.127460
H 17.907100 0.971020 9.282410
H 17.871100 0.982325 9.281250
H 17.901600 0.990398 9.325040
H 18.505800 1.333790 8.605990
H 18.515500 1.317000 8.568140
H 19.916000 2.221910 8.099280
H 19.893800 2.251100 8.124270
H 18.848900 1.593090 8.826320
H 19.307600 1.875930 8.813550
H 19.289600 1.907700 8.843320
H 19.661000 2.113030 8.561470
H 20.222400 2.606060 9.265320
H 20.214700 2.565810 9.260330
H 20.250600 2.554280 9.245380
H 20.708100 2.780850 8.344690
H 20.677600 2.825010 8.361600
H 20.684400 2.783450 8.363750
H 18.619700 1.546850 9.821560
H 18.590500 1.525930 9.790050
H 18.633500 1.509370 9.786770
H 19.469200 2.138220 9.799700
H 19.491300 2.088890 9.773210
H 19.448300 2.105530 9.782400
H 17.542400 33.057400 7.412280
H 17.539700 33.073200 7.363070
H 17.530100 33.065100 7.361450
H 17.506700 33.146100 8.395270
H 17.483000 33.148400 8.392320
H 17.507300 33.146000 8.443180
H 9.732430 9.758780 20.071300
H 8.704590 9.685860 19.970800
H 7.202040 10.997000 19.817600
H 7.778400 10.139100 19.877900
H 8.142990 11.323200 19.908300
H 8.894270 10.667600 19.985000
H 9.835220 10.993800 20.075800
H 10.586500 10.338300 20.152400
H 11.038000 11.269100 20.192400
H 7.581390 12.960500 19.845900
H 7.129920 12.029700 19.805800
H 9.083940 11.649400 19.999100
H 9.273620 12.631200 20.013300
H 8.332670 12.305000 19.922500
H 10.389500 13.159700 20.120300
H 10.965900 12.301800 20.180700
H 10.024900 11.975600 20.089900
H 9.463300 13.612900 20.027500
H 8.435460 13.540000 19.927000
H 12.656900 3.624950 22.250200
H 12.974600 4.275150 21.520300
H 12.975600 4.266930 21.503100
H 12.674300 3.642110 22.282500
H 13.298400 5.205950 21.203100
H 13.309800 5.200500 21.205400
H 13.180300 5.296180 22.192000
H 13.171500 5.277830 22.192800
H 12.439100 3.446580 23.246400
H 12.477800 3.476460 23.285400
H 12.380500 3.779620 24.225000
H 12.750000 4.604490 23.720600
H 12.706900 4.567390 23.702600
H 12.845100 4.490060 22.715200
H 12.868200 4.514260 22.731700
H 13.062100 5.386410 23.180900
H 13.033300 5.355160 23.180200
H 12.895100 5.432500 24.167600
H 12.944000 5.476630 24.169800
H 13.359700 6.142940 22.657700
H 12.437900 3.822570 24.260300
H 12.496800 4.534820 24.923500
H 12.565300 4.587710 24.946000
H 12.756900 5.509830 25.155000
H 12.825800 5.566860 25.158800
H 13.558900 6.185100 21.415900
H 13.569900 6.175510 21.436800
H 13.686200 6.930710 22.135300
H 13.686300 6.950240 22.101600
H 13.221500 6.220270 23.645200
H 13.374200 6.168320 22.641200
H 13.256000 6.258550 23.630200
H 13.450000 7.130700 24.079400
H 13.409700 7.085380 24.110100
H 13.646400 7.296350 23.076500
H 13.627500 7.263750 23.113900
H 13.149600 6.497660 24.841500
H 13.091000 6.443400 24.857200
H 21.040400 3.758070 16.357200
H 22.026800 3.597760 16.086700
H 20.301600 4.383820 16.723900
H 20.986400 5.401220 16.902400
H 21.964500 5.495100 16.716300
H 21.502400 4.626590 16.536700
H 20.008400 5.307340 17.088500
H 20.239300 6.281170 17.353500
H 21.902200 7.392450 17.345900
H 20.932400 7.044370 17.447600
H 21.448500 6.269740 17.082000
H 22.996500 3.945840 15.984900
H 22.942500 5.588990 16.530100
H 23.689700 4.709040 16.079100
H 23.920600 5.682870 16.344000
H 22.480500 4.720470 16.350600
H 22.426500 6.363620 16.895800
H 23.627400 6.606390 16.708700
H 22.888600 7.232140 17.075400
H 20.307200 14.897400 28.789400
H 20.318500 14.910500 28.795500
H 20.161000 14.265200 29.589600
H 20.167100 14.255400 29.589500
H 22.402800 15.614200 29.196400
H 21.474500 15.265800 29.066600
H 21.457800 15.277000 29.050300
H 20.931400 15.569600 28.283800
H 20.904000 15.564100 28.268600
H 21.797600 16.076900 28.166700
H 21.835300 16.065900 28.191500
H 22.380100 15.644200 29.171500
H 20.500900 13.806500 30.453300
H 20.521300 13.810300 30.454600
H 21.089300 14.613500 29.719500
H 22.017600 14.961900 29.849300
H 21.089400 14.622600 29.710700
H 22.011600 14.989900 29.831900
H 21.632400 14.309700 30.502200
H 21.643200 14.335600 30.492300
H 21.247200 13.657500 31.155200
H 21.274700 13.681200 31.152800
H 22.225600 13.902800 31.497000
H 22.200000 13.858000 31.507100
H 23.502000 16.169400 29.209200
H 23.534400 16.117300 29.245400
H 22.748500 16.298500 28.511000
H 22.788000 16.266400 28.543500
H 22.560800 14.658100 30.632100
H 22.565400 14.702800 30.613500
H 23.119200 14.415700 31.395100
H 23.103900 14.354300 31.414900
H 23.716000 15.082400 30.874400