1900
Atoms. Timestep: 0
H 11.089300 1.977760 1.630390
H 11.077500 1.956740 1.636740
H 11.120300 2.000100 1.673480
H 10.871200 1.557040 0.771563
H 10.835200 1.545260 0.724735
H 10.841000 1.532460 0.722467
H 11.488100 3.600190 1.275500
H 11.196300 2.693450 0.971040
H 11.227200 2.723580 0.991447
H 11.200600 2.706870 0.955088
H 11.377600 2.775810 2.194260
H 11.426700 2.830880 2.209890
H 11.403000 2.800990 2.174150
H 11.502200 3.615170 1.245050
H 11.521200 3.636910 1.273250
H 10.931500 3.077590 31.189100
H 10.969200 3.090100 31.204900
H 10.959900 3.067370 31.221600
H 11.241500 4.063250 31.248800
H 11.252700 4.084510 31.256300
H 11.220900 4.070960 31.225300
H 10.778500 2.186810 31.673400
H 10.744100 2.180240 31.670300
H 10.778600 2.173230 31.711000
H 10.731600 1.616670 32.536300
H 10.746100 1.620410 32.585700
H 10.708900 1.619370 32.539700
H 11.441000 4.170540 32.467300
H 11.423300 4.165080 32.444400
H 11.434000 4.166880 32.479500
H 11.010400 2.527670 32.829700
H 11.040100 2.533730 32.867500
H 11.023400 2.523420 32.840800
H 11.121800 3.256780 32.154400
H 11.147000 3.257220 32.185500
H 11.142200 3.260130 32.175100
H 11.312000 3.435970 33.119700
H 11.315100 3.430160 33.145200
H 11.334100 3.447060 33.149300
H 11.692400 3.794360 2.210310
H 11.708300 3.826760 2.237080
H 11.661000 3.770230 2.245650
H 11.851800 4.673520 1.777140
H 11.879800 4.691700 1.729200
H 11.889600 4.720900 1.747750
H 11.898700 5.243650 0.914257
H 11.915000 5.252570 0.859720
H 11.922100 5.273720 0.873017
H 11.628100 4.360390 0.591217
H 11.606900 4.336910 0.609800
H 11.547900 4.894030 31.785200
H 11.534600 4.894190 31.769100
H 11.789300 5.327860 32.728100
H 11.797000 5.337090 32.687200
H 11.788700 5.326690 32.674700
H 11.552800 4.903590 31.813800
H 11.613500 4.344270 33.409600
H 1.137610 3.954540 20.501300
H 1.301610 5.177710 20.387800
H 2.023250 4.488140 20.449100
H 2.522160 5.391290 20.364000
H 5.569030 10.342700 11.167200
H 5.625870 10.340900 11.107800
H 5.605310 10.321600 11.098300
H 5.601240 10.342400 11.106000
H 5.361070 11.167300 11.683700
H 5.372590 11.143500 11.683300
H 5.392410 11.166100 11.687600
H 5.354140 11.179300 11.737900
H 1.540320 6.144630 20.297800
H 0.818678 6.834200 20.236500
H 1.964520 7.304030 20.189300
H 1.057390 7.801110 20.146500
H 2.500660 6.421980 20.269000
H 5.289880 16.883400 6.831740
H 4.539630 16.440400 7.390880
H 4.047500 16.317700 8.293420
H 3.945370 16.548300 9.297520
H 5.602090 12.130600 12.000200
H 5.581470 12.144700 12.034800
H 5.581510 12.106900 11.999600
H 5.565400 12.132700 11.997000
H 3.746630 15.930900 27.389500
H 3.822200 15.918700 27.415900
H 3.785590 15.926400 27.399700
H 3.032570 16.634700 27.345200
H 3.067940 16.626200 27.367100
H 2.999000 16.645700 27.344600
H 4.249890 16.780000 27.163600
H 5.801420 15.939600 27.128900
H 4.745090 15.671200 27.303100
H 5.241910 16.791500 27.038000
H 4.713920 16.650200 27.101500
H 4.787430 15.675500 27.327700
H 5.726850 15.936200 27.108800
H 4.822730 15.667400 27.328600
H 4.781990 16.644200 27.118600
H 5.769640 15.949300 27.148500
H 5.895280 12.897300 32.396500
H 5.890230 12.914900 32.402300
H 5.886590 12.868900 32.456100
H 5.878570 12.950200 32.472400
H 5.876340 12.890500 32.468300
H 5.879560 12.934800 32.419000
H 5.800090 17.582100 7.719140
H 5.984630 18.233900 9.313250
H 5.021300 17.038200 8.031670
H 4.724170 17.092200 8.984990
H 5.502960 17.636000 8.672460
H 5.205830 17.690000 9.625780
H 5.716050 18.388600 10.513200
H 4.908700 17.743900 10.579100
H 4.260590 17.070300 10.134100
H 5.682560 22.253500 21.839200
H 5.724160 22.326600 21.848400
H 5.693270 22.247300 21.890400
H 4.240970 22.318500 24.271800
H 5.151080 22.135800 23.812300
H 5.668190 22.107300 22.915800
H 5.643610 22.102200 22.862600
H 5.198330 22.181700 23.772600
H 5.115950 22.126000 23.753000
H 5.709200 22.173400 22.872200
H 4.491490 22.436300 23.123300
H 4.467850 22.440900 23.059600
H 4.280500 22.325400 24.339500
H 4.328440 22.349100 24.308400
H 3.840870 17.137400 27.122200
H 2.730120 17.610800 27.178800
H 2.762040 17.600300 27.195600
H 2.702530 17.623900 27.180600
H 2.936660 18.603600 26.941300
H 2.959310 18.593000 26.945100
H 2.986460 18.579900 26.947100
H 3.722150 17.622200 27.053200
H 3.863860 18.100500 26.927900
H 3.809700 18.116400 26.920600
H 4.186440 18.475900 26.817100
H 3.904590 17.123600 27.137900
H 5.618650 17.141700 26.889400
H 5.555790 17.142000 26.879200
H 4.700510 18.598000 26.698600
H 4.651580 18.608100 26.698200
H 4.741250 17.621100 26.908600
H 4.714170 17.633700 26.927600
H 4.682750 17.629200 26.899900
H 5.706200 17.645100 26.802000
H 5.178460 18.487300 26.691500
H 5.577910 18.118600 26.679400
H 5.524620 18.120900 26.677500
H 3.638650 19.322200 26.691000
H 3.681080 19.302600 26.688400
H 3.658710 19.318100 26.706700
H 4.640920 19.591900 26.527500
H 4.659780 19.574800 26.488600
H 4.620400 19.587100 26.496600
H 5.618870 19.327400 26.410300
H 5.642760 19.341000 26.455500
H 5.660300 19.323500 26.401400
H 3.388420 23.202400 20.515200
H 3.383310 23.148000 20.529200
H 3.398520 23.193100 20.460600
H 4.386360 22.883400 20.452300
H 4.374100 22.848200 20.512400
H 4.384250 22.920700 20.487600
H 2.007650 23.378000 21.951400
H 1.995890 23.409400 21.869800
H 1.995610 23.366200 21.952800
H 2.523550 23.385600 20.979400
H 2.512730 23.337600 21.056400
H 2.518520 23.369800 21.051000
H 3.831900 22.736700 22.434300
H 3.858430 22.775700 22.411800
H 2.933040 23.076900 22.181600
H 3.171650 23.070700 21.672800
H 3.172320 23.037200 21.745300
H 3.623420 22.989100 21.463500
H 3.819750 22.755800 22.366200
H 4.103060 22.819600 21.409300
H 4.103000 22.792500 21.473400
H 5.222380 22.539500 20.957000
H 4.548810 22.687900 21.693700
H 4.762590 22.492000 22.162400
H 4.751150 22.504700 22.102700
H 5.219600 22.518600 21.010700
H 5.239200 22.600100 20.975600
H 1.992690 23.224800 22.975200
H 1.970530 23.226100 22.978300
H 1.956930 23.258000 22.893200
H 2.477660 22.951300 23.848000
H 2.417120 22.972100 23.775400
H 2.444210 22.954900 23.858000
H 3.253130 22.628200 24.280000
H 3.536440 22.692000 23.323100
H 3.560810 22.681000 23.395300
H 3.168040 22.863500 23.129900
H 4.093430 22.562400 23.360100
H 2.888340 23.006900 22.629700
H 2.901220 22.981400 22.706300
H 4.783820 22.474600 22.642000
H 3.332600 22.630800 24.336000
H 3.289710 22.625200 24.356200
H 7.865570 10.389400 9.399260
H 7.818990 10.339900 9.453190
H 8.460160 11.236200 9.362310
H 8.427640 11.175400 9.396560
H 8.490390 11.240500 9.379930
H 8.474590 11.250400 9.397320
H 7.893750 10.395300 9.418410
H 7.880500 10.403200 9.432290
H 6.196710 11.407500 11.182100
H 6.190530 11.429400 11.190400
H 7.768310 11.463000 10.035000
H 6.620780 10.785300 10.558000
H 7.411770 11.000000 10.084400
H 6.992120 9.858050 9.848090
H 7.044640 9.886270 9.779650
H 7.070020 9.895810 9.797640
H 7.055840 9.901300 9.806190
H 7.450250 11.047400 10.064700
H 7.443210 11.030500 10.040100
H 6.336050 11.013200 10.898900
H 6.586570 10.759600 10.595600
H 6.217320 9.861450 10.401500
H 6.239920 9.875880 10.416000
H 6.221570 9.879050 10.418800
H 6.168580 9.859090 10.475500
H 6.619080 10.766500 10.541300
H 7.058130 10.790700 10.243800
H 6.179350 11.419700 11.226800
H 7.851640 13.071800 0.677695
H 7.835550 13.091700 0.650806
H 8.839710 13.237500 1.407200
H 8.834690 13.299500 1.383700
H 8.802660 13.287200 1.400740
H 8.812420 13.268300 1.392210
H 8.808050 13.258000 1.396720
H 8.799310 13.271600 1.447650
H 9.542560 12.846100 0.865945
H 9.554680 12.785200 0.810484
H 9.541020 12.844800 0.825486
H 9.541170 12.822600 0.807302
H 9.559260 12.850800 0.795858
H 9.545690 12.816100 0.820139
H 8.330110 12.942600 0.628108
H 8.342970 12.957100 0.583066
H 7.804620 13.520700 1.590160
H 7.811580 13.553500 1.537470
H 7.817460 13.525700 1.534150
H 7.825220 13.543000 1.539900
H 7.858230 13.524200 1.569490
H 6.825000 13.526900 1.255300
H 6.844090 13.573000 1.210800
H 6.839340 13.547500 1.195600
H 6.859780 13.575200 1.229670
H 6.873220 13.568400 1.253870
H 6.833360 13.572300 1.199040
H 7.846610 13.564600 1.542490
H 8.884550 16.956100 1.894150
H 9.359890 16.431600 2.543630
H 9.345840 16.363400 2.606670
H 9.810030 16.264700 3.526790
H 9.804320 16.306600 3.470280
H 11.052200 14.155400 5.394240
H 11.058900 14.126900 5.316570
H 11.059800 14.148100 5.328950
H 10.152700 16.686500 4.407940
H 10.125100 16.702400 4.371530
H 11.383700 14.102700 6.524330
H 10.767200 14.754900 6.086210
H 10.803100 15.025800 7.084760
H 10.816500 15.041100 7.101900
H 10.845400 15.030800 7.180560
H 10.775000 14.774600 6.102360
H 10.784000 14.774700 6.179330
H 11.398900 14.097000 6.582630
H 11.378400 14.088600 6.513380
H 8.669090 12.199500 9.678690
H 8.700070 12.204900 9.692490
H 8.654970 12.140800 9.693390
H 11.173000 14.876100 8.059740
H 11.156900 14.867100 8.044680
H 11.219900 14.855100 8.129630
H 6.589750 12.335700 11.329600
H 6.597340 12.320200 11.346900
H 6.598470 12.312600 11.321800
H 7.004560 11.660100 10.715700
H 7.020000 11.691500 10.697200
H 7.046240 11.685500 10.690100
H 7.020840 11.671500 10.681000
H 6.324170 11.908000 11.345100
H 7.422550 12.560600 10.835800
H 7.422590 12.576600 10.820700
H 7.034350 12.580400 11.136300
H 7.419210 12.597800 10.836400
H 7.756430 12.357900 10.481200
H 7.829760 11.900500 10.204500
H 7.844960 11.935500 10.179800
H 7.849460 11.953600 10.203900
H 8.678930 12.215700 9.710640
H 8.466610 13.030200 10.272400
H 8.440080 12.977400 10.264100
H 8.436360 13.021400 10.263600
H 8.438750 13.040600 10.288300
H 7.824350 13.481600 10.960400
H 7.818430 13.504000 10.975500
H 7.840540 13.461000 10.955900
H 7.852560 13.495200 10.964100
H 6.198730 12.975800 11.961700
H 6.159500 12.979800 11.962100
H 6.176100 12.953600 11.962700
H 6.190120 12.980300 11.978100
H 7.022460 13.475200 11.582500
H 7.016990 13.462100 11.583200
H 6.984160 13.481800 11.588200
H 6.997040 13.456800 11.582300
H 6.428840 16.654700 26.858400
H 6.496040 16.662300 26.870100
H 6.469040 16.674400 26.910100
H 6.182310 12.399600 31.535300
H 6.179240 12.381200 31.591100
H 6.916390 11.972500 30.967400
H 6.867810 11.930000 31.021000
H 6.850410 12.001200 31.004500
H 6.922490 11.955700 31.009400
H 6.883350 11.991900 30.968700
H 6.919950 11.957800 30.958700
H 6.178030 12.414900 31.542700
H 7.870550 11.717200 30.821000
H 7.831890 11.714500 30.842200
H 7.855890 11.664900 30.862300
H 6.154600 12.437600 31.553600
H 8.842730 11.654200 31.175100
H 7.917180 11.706500 30.866900
H 8.851680 11.687200 31.150100
H 7.907460 11.706200 30.830700
H 7.910540 11.690100 30.821300
H 8.816900 11.670300 31.157800
H 8.885690 11.687500 31.169100
H 8.896800 11.700400 31.201700
H 8.888660 11.668300 31.159800
H 6.138600 13.328500 33.368900
H 7.351670 13.077700 33.316600
H 6.143240 12.378600 31.608900
H 7.355510 13.095000 33.345900
H 7.345990 13.101600 33.325500
H 7.342950 13.070200 33.371800
H 7.838480 12.166900 31.734000
H 7.365620 12.311000 31.784500
H 7.391970 12.282800 31.778200
H 7.359530 12.272400 31.821700
H 6.990250 12.536400 32.113500
H 7.018780 12.522400 32.073300
H 6.879640 12.752600 32.497100
H 6.873740 12.741300 32.552300
H 6.863720 12.782500 32.509700
H 6.863790 12.752600 32.545300
H 6.996840 12.988800 33.005300
H 6.994810 12.984200 32.960000
H 7.391690 12.284700 31.828900
H 7.860900 12.613600 32.648400
H 7.851250 12.614700 32.622300
H 7.859520 12.629900 32.604000
H 7.864000 12.607900 32.597600
H 7.845060 12.619400 32.625800
H 7.847880 12.630100 32.600400
H 6.122950 13.288300 33.372700
H 6.135770 13.317500 33.311700
H 6.135440 12.453500 31.601200
H 6.131930 13.350400 33.333000
H 6.130090 13.338500 33.316000
H 9.588960 11.921200 31.892000
H 9.541510 11.880400 31.866800
H 9.592230 11.898300 31.883600
H 8.336030 12.933000 33.417100
H 9.598850 11.939000 31.924200
H 9.563840 11.909800 31.867800
H 7.883490 12.168100 31.717400
H 8.346990 12.134500 31.898700
H 8.376330 12.138100 31.878700
H 8.378850 12.157000 31.925100
H 8.349780 12.158600 31.875200
H 8.699870 12.702300 33.138100
H 8.848060 12.486000 32.744600
H 8.848360 12.463200 32.698200
H 8.838710 12.476800 32.699300
H 8.832050 12.477700 32.691100
H 8.693280 12.249900 32.246300
H 8.724240 12.275500 32.248000
H 8.700270 12.737300 33.134700
H 9.563900 11.901000 31.875700
H 8.330150 12.949200 33.416200
H 9.835210 12.358400 32.840800
H 9.811550 12.288500 32.779100
H 9.832720 12.318500 32.798800
H 9.826170 12.339000 32.776300
H 9.828820 12.344800 32.805700
H 9.816210 12.325400 32.781800
H 6.148610 13.358300 33.384800
H 8.549780 17.884100 1.580130
H 8.577500 17.979400 1.547600
H 8.910840 17.043800 1.839880
H 8.449190 18.987500 1.745090
H 8.431220 18.898600 1.748770
H 8.560640 19.727900 2.354860
H 8.560290 19.798100 2.379450
H 8.960090 18.114800 2.461540
H 8.953240 18.045700 2.480770
H 9.342670 18.250300 3.375490
H 9.356690 18.207200 3.381400
H 9.351280 17.340900 2.959560
H 9.351260 17.285300 2.994040
H 9.733870 17.476400 3.873510
H 9.754720 17.446900 3.894670
H 8.951480 19.024200 2.877470
H 8.958670 18.967600 2.868130
H 8.903360 20.149700 3.236020
H 8.881030 20.194000 3.280700
H 9.334070 19.159700 3.791420
H 9.362120 19.129100 3.768760
H 9.325460 20.069000 4.207350
H 9.367550 20.051100 4.156130
H 8.074390 21.834300 4.147190
H 8.970590 22.169900 3.752210
H 8.996140 22.176900 3.693530
H 9.024710 22.216000 3.733890
H 8.142900 21.849900 4.134110
H 8.116520 21.812200 4.099890
H 9.760150 18.368800 4.282030
H 9.725260 18.385700 4.289440
H 10.163600 18.530300 5.182670
H 10.107800 18.521200 5.203390
H 10.282200 17.515800 5.014040
H 10.236200 17.513000 5.005890
H 9.774510 19.456700 4.911100
H 9.828830 19.458300 4.868650
H 7.183260 22.025800 4.638100
H 7.231370 21.972900 4.612250
H 7.248820 22.010800 4.630640
H 6.097220 17.528200 6.765820
H 6.745340 18.201800 7.210780
H 6.281760 18.179900 8.359930
H 7.060560 18.723800 8.047400
H 6.958420 18.954400 9.051500
H 6.466290 18.831700 9.954040
H 11.294400 18.617400 21.031700
H 11.290100 18.582400 21.012300
H 11.486500 19.555000 21.819100
H 11.415500 19.854700 22.181000
H 10.665400 18.972100 21.740100
H 10.651200 19.010600 21.741300
H 10.455600 19.695600 22.492500
H 10.760100 20.488800 23.084200
H 10.810200 20.441200 23.089500
H 10.489700 19.652500 22.500400
H 11.483000 21.177600 23.357600
H 6.366500 18.612700 26.455200
H 6.395780 18.632600 26.510000
H 6.414570 18.616000 26.450100
H 6.662970 17.634400 26.619200
H 6.720470 17.641900 26.621700
H 6.698230 17.656600 26.676400
H 10.591200 22.248000 29.227500
H 10.476500 22.244800 29.258200
H 11.448700 21.888900 29.256000
H 10.053300 22.382600 30.932100
H 10.797000 22.152900 30.201400
H 10.718300 22.146500 30.223500
H 10.960000 22.048100 31.188900
H 11.002800 22.057700 31.175400
H 10.112200 22.407000 30.884300
H 11.201700 21.949700 32.154200
H 11.414500 21.867400 33.123300
H 10.318000 22.311800 31.858300
H 10.471300 22.207200 33.121700
H 11.208600 21.962600 32.149400
H 10.449700 22.241300 33.088600
H 11.443400 21.851400 33.119600
H 10.295000 22.284300 31.897400
H 9.634540 22.969100 3.502060
H 9.657970 23.011100 3.537220
H 9.631710 22.942800 3.559010
H 8.877540 23.413900 4.015380
H 8.986950 23.873900 4.062290
H 8.978280 23.874600 4.036150
H 8.531940 22.985900 4.128720
H 8.546020 22.974700 4.094520
H 9.873000 24.022000 3.596800
H 9.880610 23.945900 3.619350
H 9.860670 23.976600 3.576790
H 9.613920 24.929500 3.897680
H 9.650600 24.910400 3.917050
H 9.612170 24.978000 3.896660
H 8.854640 24.397400 4.195100
H 6.331120 23.568700 5.414230
H 6.305960 23.657800 5.391120
H 6.582030 22.655600 5.090430
H 6.535970 22.693300 5.093410
H 7.339570 23.236200 4.791990
H 6.577870 22.615800 5.093340
H 7.213510 23.670600 4.954870
H 7.199620 23.729900 4.948180
H 6.321210 23.611600 5.390290
H 7.663630 22.872800 4.553880
H 7.638270 22.913900 4.571670
H 7.316670 24.219700 4.971700
H 8.120000 22.833300 4.313830
H 8.093290 23.801900 4.505230
H 8.095890 23.772600 4.495510
H 8.097100 23.816800 4.493540
H 6.554860 24.660900 5.451450
H 6.557250 24.576200 5.488960
H 6.536230 24.622500 5.449870
H 7.215980 25.433900 5.258250
H 7.195650 25.368400 5.297490
H 7.169490 25.417600 5.253200
H 7.645770 24.570500 4.896500
H 7.654640 24.617900 4.881740
H 8.548300 24.689900 4.438800
H 8.528160 24.672500 4.437140
H 8.074200 24.800300 4.673260
H 8.945390 25.622800 4.356450
H 8.960420 25.572400 4.378770
H 9.003310 25.577900 4.372360
H 8.112180 25.769500 4.863280
H 8.051300 25.783700 4.852980
H 8.075270 25.733000 4.891130
H 9.843390 24.872000 18.581100
H 9.850700 24.839000 18.588100
H 10.103000 25.866000 18.709000
H 10.131800 25.827800 18.711600
H 7.763290 23.755400 20.159300
H 7.783840 23.734800 20.151200
H 9.258290 24.057800 18.839100
H 9.247310 24.039200 18.848900
H 8.483270 23.642500 19.424000
H 8.504450 23.641600 19.413800
H 7.964020 24.945700 20.439900
H 7.959030 24.927800 20.437500
H 8.566470 24.592300 19.717500
H 8.565500 24.593200 19.723000
H 9.249220 25.191500 19.305100
H 9.235950 25.207500 19.301200
H 8.628500 25.543100 20.021200
H 8.647740 25.543900 20.022000
H 8.812200 27.445300 20.620100
H 9.532180 27.332500 19.884700
H 9.473160 27.351300 19.891100
H 8.729970 26.494600 20.321000
H 8.690530 26.493800 20.324900
H 9.331450 26.142200 19.604100
H 9.297970 26.158300 19.604900
H 8.752550 27.444600 20.628600
H 10.015200 26.740400 19.186200
H 9.967450 26.773500 19.188500
H 7.289550 24.312600 20.853800
H 7.280310 24.347400 20.857800
H 7.163720 25.260100 21.332400
H 7.154040 25.220100 21.333300
H 8.021050 25.878600 20.741200
H 8.046260 25.896400 20.739000
H 7.413610 26.214100 21.461200
H 7.444770 26.248900 21.455900
H 7.998710 27.028300 21.203300
H 8.048160 27.048700 21.195200
H 10.987400 23.914200 23.678900
H 10.977400 23.915900 23.710500
H 10.981400 23.890700 23.706900
H 11.128200 24.696500 23.047400
H 11.113800 24.666200 23.034000
H 11.153400 24.704600 23.031100
H 11.516600 25.590600 22.799100
H 11.154800 23.471900 24.637700
H 11.136700 23.483600 24.637600
H 11.126300 23.467600 24.602500
H 9.736740 22.570900 29.714700
H 9.146550 22.717200 30.675300
H 9.633880 22.548000 29.777600
H 9.221490 22.756300 30.593300
H 9.183550 22.754500 31.627900
H 9.145140 22.707100 31.710500
H 9.630010 22.520500 32.606000
H 9.633090 22.566000 32.541200
H 14.462100 1.852040 20.558700
H 14.438800 1.733260 20.546200
H 15.974100 1.063760 19.513400
H 15.993900 1.013140 19.515100
H 15.783000 1.990180 19.484500
H 15.803900 2.048640 19.481100
H 15.216300 1.373200 20.030700
H 15.218100 1.457900 20.036000
H 16.560600 1.630120 18.969000
H 16.559800 1.654500 18.958500
H 16.730100 0.669620 18.990800
H 16.771500 0.653084 18.999600
H 14.904600 2.656120 20.079600
H 14.852500 2.557080 20.075100
H 16.404700 2.853750 18.849200
H 15.572100 2.967210 19.453900
H 15.633600 3.033530 19.448800
H 16.453900 2.883140 18.835400
H 14.424800 0.836736 20.757700
H 14.441700 0.716475 20.741000
H 16.191100 1.853790 22.813400
H 16.310800 1.797660 24.059300
H 16.155000 1.871080 22.832000
H 15.622500 2.344780 23.582900
H 15.656800 2.323610 23.565500
H 16.349500 1.780770 24.040400
H 16.997800 1.228440 23.516300
H 16.956400 1.240820 23.536600
H 16.913700 1.231100 22.537500
H 16.953400 1.218950 22.517300
H 16.353600 1.807390 25.058300
H 16.393900 1.790270 25.039300
H 15.745600 2.342600 25.563400
H 15.708000 2.364230 25.581000
H 16.999100 1.250550 24.535600
H 15.493700 2.502530 24.572000
H 15.458900 2.525290 24.589100
H 16.303100 1.904760 26.292800
H 16.344800 1.886670 26.273900
H 12.220500 12.543800 5.199620
H 12.235700 12.537800 5.173340
H 12.245500 12.523300 5.172360
H 12.807600 11.983400 5.842240
H 12.822400 11.977500 5.836420
H 12.811900 11.985600 5.832840
H 11.594400 13.329300 4.988910
H 11.577900 13.338800 5.035640
H 11.600000 13.310100 4.982080
H 11.795800 13.379000 6.010790
H 11.794800 13.366200 5.961310
H 11.793400 13.380100 5.967600
H 12.601200 12.759000 7.368260
H 12.600900 12.756000 7.367720
H 12.628600 12.741500 7.389230
H 12.410700 12.701300 6.414090
H 12.406100 12.699900 6.388480
H 12.402200 12.708200 6.389560
H 13.168400 11.820600 6.790680
H 13.176300 11.818800 6.796330
H 13.182100 11.807700 6.791310
H 13.212100 12.089700 7.794890
H 13.209900 12.087100 7.790220
H 13.243500 12.063800 7.792530
H 11.989700 13.422300 6.940550
H 11.992400 13.430900 6.946290
H 12.013800 13.419300 6.985930
H 11.582700 14.153500 7.503020
H 11.573300 14.144700 7.492610
H 11.616800 14.137200 7.557780
H 12.975400 12.683100 8.577630
H 12.920500 12.717700 8.564530
H 12.925100 12.713600 8.563630
H 12.231700 13.459500 7.961080
H 12.184500 13.478400 7.919780
H 12.191500 13.481600 7.924980
H 12.449600 13.499700 8.936230
H 12.379400 13.534500 8.899020
H 11.807000 14.294700 8.772250
H 11.733900 14.321300 8.708740
H 11.749200 14.323900 8.719240
H 12.390500 13.532400 8.903670
H 12.418100 16.420900 24.109600
H 12.440200 16.439300 24.070000
H 12.466500 16.392300 24.085600
H 13.127900 15.595900 24.087800
H 13.069700 15.616400 24.108500
H 13.099600 15.641200 24.068300
H 13.665500 14.944500 24.623700
H 13.728900 14.930900 24.606000
H 13.699900 14.973100 24.583200
H 14.080200 14.614000 25.476600
H 14.108400 14.575700 25.501300
H 14.045800 14.585200 25.517000
H 12.373300 16.626800 25.330900
H 12.412100 16.596700 25.306800
H 12.388700 16.640000 25.291800
H 12.989300 15.883800 25.032200
H 12.965500 15.863800 25.071800
H 13.015100 15.841300 25.050600
H 12.879000 16.126400 25.996000
H 12.861400 16.111200 26.035100
H 12.902300 16.086600 26.013500
H 13.479600 15.370200 25.736300
H 13.505400 15.331100 25.757400
H 13.453600 15.348200 25.776100
H 13.837400 15.080000 27.443700
H 14.138700 14.660200 26.509200
H 14.164700 14.625200 26.533800
H 14.108700 14.634800 26.549200
H 13.859600 15.099200 27.404300
H 13.882800 15.066400 27.427000
H 13.317800 15.813500 27.922000
H 12.658400 16.611700 27.923700
H 12.299300 16.842100 26.269600
H 12.278400 16.882600 26.255700
H 12.269200 16.874200 26.294200
H 12.757200 16.358600 26.998400
H 12.768700 16.369100 26.959800
H 12.789500 16.332000 26.976300
H 13.349400 15.595600 26.739400
H 13.338100 15.780900 27.941400
H 12.676700 16.577400 27.939200
H 13.369300 15.612800 26.700200
H 13.392500 15.576500 26.720200
H 13.304600 15.801500 27.960700
H 12.653000 16.606000 27.961800
H 16.458900 22.435300 3.180620
H 15.772300 22.393500 3.883110
H 16.477700 21.719900 3.879190
H 16.505000 21.714200 3.841650
H 16.461600 22.445100 3.160520
H 15.756900 22.413000 3.892410
H 14.352800 22.368400 5.315990
H 15.082900 22.341900 4.605700
H 15.054800 22.390700 4.604200
H 14.967900 21.561300 5.520950
H 14.393500 22.290300 5.328290
H 15.026300 21.490000 5.503990
H 15.794400 20.982400 5.289550
H 15.775600 21.697700 4.590980
H 16.610800 20.786800 4.683780
H 15.858900 20.931700 5.245380
H 16.668400 20.765200 4.621750
H 15.815600 21.662600 4.564240
H 12.212800 18.621200 20.554000
H 12.196500 18.587800 20.512100
H 13.141700 18.986800 20.373500
H 13.160500 19.021100 20.436000
H 13.872500 19.672500 20.633500
H 11.815700 19.319600 21.436900
H 13.157000 20.643700 21.974600
H 12.341300 20.056900 21.861500
H 12.321700 20.099300 21.896800
H 12.267300 19.360300 21.225400
H 13.102500 19.904600 21.303200
H 12.741500 19.521800 21.117500
H 13.267100 20.259000 21.542100
H 13.883300 19.709900 20.709500
H 14.192900 20.461200 21.222600
H 14.187800 20.503100 21.301100
H 12.866900 20.794100 22.286100
H 13.992200 21.188100 22.052400
H 14.017200 21.141600 21.982900
H 11.941100 20.591900 22.605600
H 11.540900 20.294100 22.490500
H 12.376100 20.838400 22.568300
H 12.430600 21.577500 23.239700
H 12.486100 21.525900 23.210900
H 13.349000 21.581300 22.761900
H 11.540900 21.126900 23.349600
H 13.392500 21.531300 22.710700
H 11.921900 17.106900 24.600000
H 11.898400 17.153600 24.587700
H 11.885300 17.142500 24.626600
H 11.639900 17.548000 25.493200
H 11.619400 17.592700 25.482800
H 11.614000 17.587700 25.521100
H 11.677000 17.637300 26.553200
H 11.677800 17.638900 26.515400
H 11.696200 17.597600 26.525700
H 12.057300 17.278000 27.446600
H 12.075700 17.242300 27.421000
H 12.058200 17.279800 27.408800
H 11.556000 21.874100 29.262200
H 12.372600 21.549400 29.809600
H 12.290000 21.575700 29.771800
H 11.625000 21.811900 30.480400
H 11.687700 21.803600 30.492500
H 11.893500 21.708400 31.466400
H 11.866700 21.713500 31.445700
H 12.822100 21.360900 30.722900
H 12.774800 21.389000 30.667300
H 12.269000 21.544500 32.636100
H 12.773400 21.379000 31.702500
H 12.784200 21.359100 31.757500
H 12.286100 21.548200 32.600100
H 16.518200 23.297000 2.262220
H 16.545900 23.264700 2.263870
H 15.039500 23.072800 3.924560
H 15.036100 23.106000 3.905640
H 14.306800 23.752100 3.966020
H 14.315300 23.799100 3.918860
H 14.903000 24.039200 3.101050
H 14.876100 24.021800 3.144460
H 15.728900 23.124400 3.201970
H 15.738200 23.128300 3.193850
H 15.685600 23.855300 2.520830
H 15.719400 23.843600 2.495280
H 14.130200 23.118300 4.765350
H 14.113900 23.187500 4.729590
H 15.233500 23.968800 16.732500
H 15.267200 23.971700 16.718800
H 14.897800 25.404900 15.381600
H 14.982600 25.171400 16.593700
H 15.114800 24.515200 15.850800
H 15.099300 24.508900 15.859600
H 14.973900 25.173000 16.596600
H 14.891500 25.410300 15.381000
H 14.432300 27.744900 16.900800
H 14.683100 26.416600 15.426600
H 14.392900 27.729800 16.921000
H 14.753800 26.122500 16.385900
H 14.657300 26.417300 15.435200
H 14.474700 27.266300 15.998900
H 14.765800 26.126900 16.380200
H 14.512700 27.273100 15.982700
H 15.308000 23.925600 17.752200
H 15.264600 23.929400 17.766600
H 15.056600 24.883200 17.550100
H 15.079200 24.876600 17.544400
H 14.931200 25.547400 18.287200
H 14.947000 25.532900 18.287300
H 14.850400 25.827700 17.336600
H 14.848500 25.837100 17.333700
H 15.226100 24.389100 18.674300
H 15.184200 24.401100 18.684700
H 14.723100 26.501200 18.070700
H 14.718200 26.484000 18.079500
H 14.640400 26.791000 17.117200
H 14.621600 26.778700 17.128800
H 14.433600 27.683700 17.954400
H 14.463400 27.705400 17.934800
H 14.597700 27.165300 18.807800
H 14.586000 27.140200 18.822300
H 15.043600 25.238100 19.238000
H 15.013900 25.257600 19.240700
H 14.809300 26.245100 19.292100
H 14.799200 26.269400 19.285800
H 11.841600 25.416100 23.760900
H 12.420200 26.066200 24.253600
H 12.421800 26.053200 24.285100
H 11.852700 25.411900 23.770500
H 11.819700 25.406200 23.734100
H 12.390400 26.071700 24.215200
H 11.556500 24.555600 24.193600
H 11.552100 24.556200 24.188000
H 11.556000 24.565900 24.203200
H 11.579900 25.626800 22.832700
H 11.548600 25.616300 22.826000
H 12.152700 26.433900 23.136800
H 12.705700 26.916400 23.811300
H 12.657900 26.921600 23.761300
H 12.718100 26.909500 23.862000
H 12.081800 26.416100 23.065300
H 12.126000 26.428900 23.105600
H 11.533000 23.484300 25.554400
H 11.563400 23.515600 25.580400
H 11.587600 23.521900 25.576900
H 11.829300 24.340600 25.131300
H 11.849000 24.365800 25.138100
H 12.122800 25.221800 24.669100
H 12.125600 25.196900 24.708200
H 12.134600 25.216000 24.695800
H 11.855200 24.371800 25.123000
H 12.427600 25.015800 25.630800
H 12.425900 25.037300 25.604000
H 12.398400 24.981900 25.646000
H 12.693500 25.887300 25.150100
H 12.713100 25.866000 25.188500
H 12.694600 25.838200 25.222900
H 13.090700 26.971600 24.700400
H 13.132400 26.948300 24.754000
H 13.124800 26.926200 24.813900
H 13.264100 26.552800 25.631200
H 13.263700 26.479500 25.737500
H 13.291700 26.516100 25.681200
H 12.098500 23.959900 26.279600
H 12.143100 24.003100 26.286100
H 12.163800 24.027400 26.272800
H 13.141000 25.735400 26.344300
H 13.097700 25.689200 26.385300
H 13.131700 25.777300 26.304100
H 12.729000 24.852900 26.539000
H 12.720500 24.815600 26.565700
H 12.671200 24.767000 26.583700
H 14.802600 32.722100 20.623200
H 14.860600 32.619100 20.607400
H 16.204800 32.876000 19.545700
H 15.494300 32.084300 20.191400
H 16.415700 31.899000 19.576300
H 16.314600 31.933900 19.577900
H 16.144300 32.918800 19.545700
H 15.583100 32.012400 20.181100
H 15.388300 33.312900 20.068300
H 15.427200 33.236000 20.061300
H 17.523400 1.290780 18.269100
H 17.546100 1.309810 18.289200
H 17.127200 2.247100 18.422900
H 17.145600 2.245250 18.403600
H 17.739600 0.589202 22.756600
H 17.690500 0.685609 23.991200
H 17.644700 0.693707 24.012900
H 17.695200 0.596337 22.778500
H 17.042200 1.237940 24.515300
H 17.086600 1.247430 25.514300
H 17.041900 1.260270 25.534700
H 17.687400 0.703430 25.012000
H 17.734900 0.695102 24.990200
H 17.843300 0.630017 26.239300
H 17.893300 0.622087 26.217200
H 17.130900 1.256920 26.513200
H 17.084600 1.269990 26.533700
H 21.586300 8.427320 1.045090
H 21.590700 8.376520 1.018410
H 22.352800 9.119750 1.114390
H 22.346700 9.079940 1.092850
H 20.767400 8.723460 14.969500
H 20.781800 8.875100 14.959200
H 21.334200 9.589190 14.936500
H 21.381300 9.719060 14.948400
H 20.072500 7.662440 16.382800
H 20.098300 7.525800 16.424800
H 20.315100 7.968200 15.514200
H 20.302700 8.122320 15.484300
H 20.646300 8.330790 16.652100
H 21.194400 9.135780 16.879400
H 20.980900 8.929620 15.924400
H 20.651900 8.438920 16.630500
H 21.006600 9.045250 15.918700
H 21.231400 9.215410 16.878100
H 22.309900 10.812200 16.342300
H 21.863500 10.333400 15.424100
H 21.940600 10.428100 15.454600
H 22.213500 10.756800 16.301600
H 21.528900 9.734610 16.151700
H 21.586000 9.821740 16.166400
H 20.175200 7.514790 17.457200
H 20.152800 7.618670 17.414000
H 20.522100 8.002750 18.301700
H 20.525200 7.938120 18.334700
H 20.859800 8.536950 17.607100
H 20.876700 8.609080 17.589900