9000
Atoms. Timestep: 0
N 3.210360 4.076160 1.253130
N 2.757910 3.287320 1.196070
N 5.467530 3.349470 1.776740
N 4.847520 3.784710 2.357880
N 3.586590 4.874420 1.574180
N 4.075220 4.772710 2.380070
N 3.882720 3.613490 2.411060
N 3.256800 4.319770 2.413140
N 2.222390 3.539200 33.220000
N 1.489620 3.994660 32.185300
N 2.250780 4.575600 32.196600
N 1.820810 4.390900 33.048600
N 9.244220 1.426560 1.371930
N 8.466300 1.148530 1.889510
N 10.184200 1.619880 1.895870
N 9.981260 0.969983 1.036290
N 10.192500 2.398360 0.855727
N 10.806400 0.875971 1.927250
N 6.355060 3.729730 1.635320
N 7.106700 4.100960 1.246940
N 8.487160 2.776450 1.262500
N 9.448270 2.559490 1.489750
N 8.336540 3.570430 0.799393
N 10.434500 3.613680 0.973724
N 10.614000 3.762060 1.883660
N 7.189200 5.131800 1.407010
N 8.127900 5.009120 1.499900
N 9.049630 4.719850 1.438970
N 9.181980 5.485680 0.879551
N 10.871700 4.466940 1.335050
N 10.081900 4.920030 1.654930
N 10.228800 5.738720 1.114260
N 7.934130 1.109280 2.704860
N 10.723000 2.132220 2.619660
N 11.359000 1.446390 2.636430
N 10.087500 1.190420 2.688390
N 11.354100 0.726807 3.391090
N 10.109100 2.023780 26.013700
N 9.346040 2.600170 25.944500
N 10.415300 1.479770 26.752900
N 10.919200 0.771562 27.860900
N 8.152070 4.138440 27.867800
N 9.380670 3.468530 27.928700
N 9.783900 2.838620 26.780600
N 10.308700 3.654850 26.992600
N 10.223700 3.963410 27.929700
N 9.082740 4.397760 27.782800
N 9.540520 1.649380 28.575300
N 9.056900 0.643470 29.092400
N 8.590750 1.362810 28.611000
N 10.226100 0.936350 28.490900
N 11.344500 1.488660 28.667900
N 8.627850 3.872250 28.630500
N 9.492480 4.121040 28.972200
N 10.452300 3.627480 28.942800
N 11.183000 3.130340 29.308200
N 10.539900 4.552370 28.907500
N 10.070500 5.344150 29.346000
N 9.702390 0.666119 30.904400
N 9.911210 1.592190 30.628300
N 10.716700 2.211860 30.585600
N 10.657900 1.323550 31.174000
N 11.432500 2.262720 29.877900
N 9.288320 3.439910 31.436200
N 9.426300 3.205500 30.434100
N 8.988930 4.156620 29.813900
N 11.022900 3.947200 30.092200
N 9.917500 2.560690 30.990800
N 10.538300 2.982910 30.014600
N 10.156600 3.729740 30.796300
N 10.048200 4.043770 29.913700
N 9.350030 4.545050 30.740200
N 8.724180 5.013460 30.210100
N 10.053100 5.005190 30.226600
N 9.041290 2.121530 33.383900
N 9.234150 2.279510 31.700400
N 9.068670 1.359280 32.422700
N 9.971420 0.763785 32.555100
N 9.789080 1.579590 33.182100
N 10.902500 0.637604 32.947200
N 10.687600 0.589322 31.773000
N 9.820250 1.545940 31.923800
N 8.413370 3.786200 32.672200
N 8.215010 2.914930 32.918500
N 9.072580 2.981680 32.456000
N 9.507070 3.805940 32.424500
N 9.505280 2.980470 33.413100
N 10.031500 3.010200 31.810500
N 10.314000 3.352390 32.917900
N 9.604460 4.763080 32.299000
N 9.094210 5.498250 32.655100
N 9.847920 4.904940 33.408200
N 10.485800 4.300230 33.006900
N 10.023000 5.688190 32.103400
N 9.490620 6.427310 32.037600
N 10.072100 6.084850 33.065600
N 9.924700 6.985140 32.637400
N 10.637200 32.714200 0.980963
N 10.950100 32.726200 1.983150
N 10.250900 32.115700 2.211500
N 9.782790 32.272700 1.204530
N 8.323440 33.293300 3.287530
N 8.316740 32.500300 2.671980
N 9.501560 32.544800 2.608080
N 8.974850 32.496000 3.408820
N 10.644300 33.258800 2.864900
N 9.299070 31.631300 31.182300
N 10.597300 33.146900 30.692600
N 11.332000 32.639500 30.364400
N 9.518740 31.497700 33.185300
N 9.034860 30.928500 31.713500
N 8.290170 31.242200 32.198100
N 10.148700 31.450700 31.635900
N 9.360290 33.410400 31.849900
N 9.575740 31.922000 32.272500
N 8.224360 32.195500 32.367700
N 11.150200 32.562700 33.026200
N 10.207300 32.708000 32.182100
N 9.867450 32.403800 33.137100
N 12.270500 1.991070 2.159800
N 11.972400 1.164610 1.880810
N 13.071300 1.298190 0.766308
N 14.880600 2.374520 1.594930
N 12.560400 3.730690 1.633860
N 12.489300 2.983260 2.344670
N 13.296900 3.226430 1.357140
N 12.365300 3.466590 0.594821
N 13.975400 2.486370 1.123490
N 14.829100 3.180060 1.034200
N 14.616800 3.216140 2.053880
N 15.492400 3.499820 1.662840
N 12.704900 4.383560 0.883813
N 13.941700 4.648380 2.304880
N 13.523100 4.452840 1.424350
N 16.074700 4.297810 1.727840
N 16.061300 5.187190 1.452060
N 16.480500 5.072870 0.602430
N 15.225300 5.614540 0.680970
N 15.661500 4.588080 0.719213
N 12.962800 2.038150 2.750710
N 12.831300 1.736530 3.641830
N 12.052300 2.194150 3.314130
N 11.938400 3.147000 3.059510
N 14.738500 2.408760 2.679400
N 14.034600 2.989200 3.073150
N 13.747200 3.744180 2.521160
N 14.541600 4.055470 3.432680
N 15.119600 2.809570 3.426610
N 14.095000 3.359370 4.039570
N 14.530000 2.511280 4.114660
N 15.285700 3.485320 2.705860
N 14.993600 4.371060 2.644100
N 14.277100 5.056300 4.047390
N 13.208200 5.135370 5.591250
N 13.890100 5.652950 6.047770
N 13.752000 4.241900 4.304530
N 13.662400 4.359040 5.350380
N 14.115700 5.120930 5.004260
N 16.387800 4.249330 7.423330
N 16.046900 5.081820 7.177740
N 15.380400 5.424310 6.493380
N 16.625300 4.358980 8.352070
N 16.462200 5.090850 8.971110
N 11.794000 1.386210 29.507700
N 11.584800 0.609906 28.512000
N 11.639900 4.131370 29.084900
N 12.711100 2.547070 31.358000
N 12.781000 3.603810 30.227100
N 12.268000 2.891210 29.973200
N 11.949300 3.172880 31.552900
N 12.874300 3.667100 31.167500
N 11.723000 3.425240 30.513800
N 11.914400 4.360260 29.937000
N 12.176600 4.434190 30.892900
N 12.883800 5.106750 30.810500
N 13.018600 5.820390 30.130600
N 12.556900 0.729097 31.742700
N 12.604300 1.655700 31.613000
N 12.647000 1.769440 32.935600
N 12.463900 0.758599 32.744100
N 13.342900 0.958173 32.495100
N 11.683800 0.598167 32.255000
N 14.240100 1.304240 32.540500
N 14.494600 2.234960 32.612800
N 13.729700 1.906060 33.256200
N 12.873200 2.803580 32.276300
N 12.253800 4.044040 31.811800
N 12.159600 3.405860 32.516000
N 13.120700 3.864980 32.340900
N 12.073400 2.517100 33.105300
N 12.954600 2.677100 33.335400
N 14.204100 4.034770 32.462300
N 15.013200 3.034940 32.800100
N 14.424500 4.020180 33.407500
N 13.619100 3.355750 31.664800
N 13.426300 3.889170 33.369600
N 15.398300 3.917680 32.938900
N 12.700800 4.888740 31.956800
N 12.451100 4.400960 32.750000
N 14.274200 5.634460 32.982200
N 14.667600 4.826410 32.694900
N 14.863800 6.186350 6.723820
N 13.994100 6.514460 6.511690
N 13.294000 6.626680 30.560800
N 14.009200 6.892990 31.345900
N 14.242100 6.089540 30.903800
N 13.800800 7.799250 31.006200
N 14.173100 6.899150 30.335700
N 12.574100 8.874350 30.033400
N 13.365200 8.295740 30.150600
N 14.296800 8.261790 29.984200
N 14.233600 9.205480 30.322300
N 13.815100 8.799710 31.065000
N 12.013900 10.004500 30.968300
N 12.482900 9.795460 30.178900
N 14.400000 6.166560 32.206800
N 15.243700 6.071920 32.722300
N 11.713400 9.397620 31.656900
N 12.437900 9.708230 32.214200
N 12.062000 10.486800 32.681000
N 12.864800 10.894500 32.699800
N 13.973400 11.663400 0.884170
N 13.775100 11.783400 1.798180
N 12.681500 12.781700 3.159040
N 13.346100 12.189900 3.553440
N 13.340800 11.841300 2.634520
N 12.552000 13.514800 2.593910
N 13.293800 13.952900 3.150260
N 13.343400 11.852800 33.007000
N 13.135600 11.597500 32.111700
N 12.540400 32.986000 2.254920
N 11.654700 33.272600 2.572190
N 11.815700 31.929400 30.877500
N 12.900100 31.930200 31.414600
N 12.154600 32.685500 31.584200
N 13.542500 32.590900 31.194500
N 12.868300 31.109400 32.108500
N 12.841800 32.718100 32.197500
N 13.798400 32.847200 32.085600
N 13.488500 31.851400 32.181500
O 4.899860 5.442660 1.912280
O 5.259630 4.599930 1.747640
O 5.698740 5.844430 2.358830
O 5.493240 4.630630 2.639670
O 5.527680 6.807020 1.323340
O 5.023750 6.786430 2.097020
O 5.678710 7.969190 1.212080
O 4.595960 8.334560 1.172310
O 5.409640 8.848460 0.904346
O 5.849690 6.706100 2.648800
O 2.911300 8.390700 27.767700
O 3.145410 9.350650 27.726500
O 3.679800 8.338880 28.356300
O 3.495740 8.885930 29.147300
O 4.488390 9.030310 29.052700
O 4.837110 8.471240 29.718100
O 5.458450 7.461420 31.126900
O 5.403230 7.965500 30.321700
O 4.511560 8.769270 30.821100
O 4.634500 7.959450 31.264400
O 5.408380 8.792950 31.174600
O 5.176300 6.775690 33.300900
O 4.853200 7.649120 33.397600
O 5.642600 8.518390 32.073900
O 5.742130 8.187190 33.165700
O 6.198990 4.917500 3.109560
O 6.910200 5.165420 3.725410
O 7.837730 4.863720 4.882830
O 7.254710 5.574450 4.590040
O 6.495280 8.440580 32.478800
C 0.758520 1.052140 6.809980
C 4.927120 5.997350 6.841630
C 0.765747 0.922425 20.091400
C 0.981519 1.742050 20.532000
C 1.336920 2.165620 19.596400
C 2.197440 2.196640 20.248800
C 2.571280 2.244840 19.360800
C 3.556780 2.338090 19.666300
C 4.062640 2.099070 20.443200
C 1.677920 2.843460 19.012000
C 1.142770 3.646490 18.961800
C 2.863890 2.859600 20.364600
C 1.598410 4.544050 19.478900
C 2.127030 5.380510 19.342600
C 0.687004 4.264380 19.581700
C 0.954313 2.194710 21.364100
C 5.314240 2.001940 20.973000
C 1.058910 4.120720 21.630100
C 2.059530 3.222580 20.696800
C 0.815814 3.020790 20.953700
C 1.628910 3.253650 21.649800
C 3.993240 2.929660 20.937400
C 2.595290 3.400940 21.445400
C 4.928420 2.888990 21.078800
C 0.676230 5.789270 22.285900
C 1.187920 5.015960 21.384900
C 2.122400 4.644250 21.755000
C 1.648490 5.844940 21.996900
C 2.181030 5.520110 21.336000
C 1.791230 5.985170 23.435200
C 0.973460 5.518480 23.125900
C 0.973442 5.810050 26.152600
C 3.433830 9.957280 2.184850
C 5.030760 11.396000 1.945070
C 1.247050 6.710050 3.249640
C 1.596850 7.566870 3.714150
C 0.782724 7.240100 2.596940
C 0.581432 6.958360 3.958780
C 0.729565 8.039970 3.997890
C 1.229770 10.665600 4.210540
C 2.801650 10.322900 2.863690
C 3.179490 11.177100 2.515990
C 5.652740 11.033300 2.643650
C 1.274740 7.146130 4.551360
C 6.051700 7.284050 5.933490
C 5.165170 7.322120 5.650030
C 1.056080 9.698320 5.728530
C 0.992709 9.987950 4.797020
C 1.024480 11.003500 5.070500
C 5.022560 10.947100 5.608030
C 5.365830 10.059200 5.392130
C 3.242730 6.492760 6.909360
C 4.087850 6.205720 7.252210
C 4.927600 6.977550 6.724720
C 5.950690 6.945980 6.837740
C 5.055830 7.707350 7.355490
C 6.043400 7.548080 7.624200
C 0.922070 9.148420 6.509040
C 5.557270 9.556170 7.652410
C 5.535120 8.528470 7.054490
C 5.425770 7.930830 6.320800
C 5.352280 11.073600 6.508630
C 4.671040 10.457300 6.817160
C 4.984350 11.027500 7.531140
C 5.324020 9.995920 6.326960
C 1.941050 6.378120 9.593730
C 0.606355 7.337320 8.505330
C 5.461900 7.822290 8.351850
C 5.227010 9.101240 9.486610
C 5.628020 8.706530 8.706130
C 1.983120 10.907100 8.934160
C 3.732550 11.369800 9.353450
C 4.641980 11.206400 9.605530
C 5.908570 10.385100 8.372580
C 4.952840 10.201900 8.095980
C 5.034980 10.210800 9.260270
C 5.549640 11.175600 9.214870
C 5.952540 9.872710 9.393190
C 2.023580 7.654660 10.937100
C 2.159920 7.121040 10.132800
C 0.668483 7.301180 11.524300
C 1.220480 9.469500 11.178000
C 2.696120 8.284500 11.340200
C 5.771750 7.930240 10.660700
C 6.002060 8.541580 11.373000
C 5.569100 8.843630 10.323300
C 5.098300 9.446760 11.104200
C 2.300650 11.196100 10.327200
C 2.744920 10.972300 11.181000
C 4.070780 9.903500 10.833500
C 3.476370 10.996000 10.507400
C 4.280660 11.005700 11.359200
C 5.640640 10.734000 10.130400
C 4.683700 10.550900 10.518000
C 5.183490 11.395900 10.645400
C 5.068740 9.773230 10.174100
C 1.543820 7.477590 11.853200
C 2.520480 7.452690 11.864000
C 1.724830 9.493310 12.091300
C 1.119530 8.868050 12.502600
C 5.127060 9.696340 12.627700
C 5.220110 9.030630 11.934200
C 1.121520 10.245900 11.771600
C 3.987580 10.803000 12.259000
C 5.693310 10.485600 13.137200
C 5.724850 10.250000 12.186500
C 4.876090 10.717400 12.489700
C 5.296590 11.452100 12.888200
C 4.584300 10.106400 11.602700
C 4.491690 10.770700 13.775100
C 5.434100 10.976400 13.884400
C 1.939830 7.364990 18.792000
C 1.104550 7.753220 18.747200
C 1.581380 9.487330 18.097400
C 1.340420 10.346600 17.790500
C 2.196100 10.099400 18.493900
C 1.881690 11.399200 18.435600
C 2.245110 6.323810 19.056900
C 1.494850 6.764620 19.410100
C 1.264590 8.396170 19.393400
C 1.866120 9.119110 19.178400
C 2.470560 9.915880 19.398200
C 1.944850 7.587090 22.164200
C 1.055710 7.543590 21.226200
C 3.625530 7.150090 22.086400
C 2.916440 7.407560 21.513800
C 2.412790 6.746970 22.358700
C 1.033820 8.475230 21.739400
C 1.800970 8.004810 21.034400
C 0.590831 8.356010 20.909400
C 2.696670 7.959540 20.676300
C 3.141820 10.202100 21.951500
C 3.521950 10.895300 22.462300
C 4.333860 9.998630 21.795400
C 0.762704 7.053040 24.107400
C 0.771761 6.546510 23.268300
C 1.798470 6.942020 23.137300
C 1.452940 8.282710 22.614500
C 2.535260 10.999400 22.595400
C 3.693380 11.001200 24.163200
C 3.802970 9.810920 22.597800
C 3.875940 11.516400 23.369200
C 4.799500 11.233800 23.103800
C 4.573040 10.545900 22.522700
C 1.030590 6.153250 24.360200
C 1.001680 7.325050 27.159100
C 0.871078 6.399680 26.900600
C 0.886451 8.344490 27.846000
C 1.063260 7.436910 28.118000
C 4.154450 13.224100 1.904380
C 5.928460 12.049100 1.639480
C 4.395730 12.533000 0.890315
C 4.907160 12.623600 1.710140
C 5.468030 12.536400 0.919991
C 4.857810 11.652500 1.018550
C 3.137940 13.590900 2.072760
C 4.712700 13.414300 1.101900
C 4.827670 14.882000 0.801441
C 1.373410 16.013700 0.998197
C 3.637330 16.677100 2.274840
C 3.048140 12.717500 2.473880
C 3.406150 11.702000 3.306410
C 3.556380 13.212800 3.066630
C 4.012140 12.354000 2.990870
C 5.040350 11.953300 2.668820
C 5.482110 13.014500 4.029970
C 5.536700 12.800900 3.102480
C 5.254430 11.943100 3.585290
C 0.693721 15.041600 3.860480
C 2.448280 13.689300 2.682620
C 2.910770 14.520300 2.606930
C 5.658320 13.809800 3.456230
C 5.467160 14.438300 2.626320
C 2.397580 16.170400 2.714310
C 0.718362 15.941300 3.615320
C 1.575970 15.775100 2.828610
C 0.875349 16.731200 3.057980
C 1.678740 15.296600 3.668370
C 1.969730 16.187500 3.765140
C 3.078850 15.227300 3.795460
C 3.216940 15.430900 2.847430
C 4.063760 16.945700 3.100040
C 0.861406 13.893800 4.446210
C 0.889287 14.883900 5.295520
C 1.197250 13.598300 5.284070
C 0.800850 14.029900 6.013400
C 3.967000 15.061400 4.581520
C 2.493450 15.051900 4.482690
C 4.372770 15.115500 5.773190
C 5.352220 15.154900 5.364620
C 1.131460 16.031700 5.520780
C 2.312420 16.170200 4.711670
C 2.078850 16.480900 5.653880
C 1.049120 16.867600 5.903190
C 1.560000 15.340700 4.764730
C 1.216400 16.287800 4.571240
C 3.532020 15.898400 4.815590
C 4.116460 16.006800 5.553060
C 4.734380 16.923200 5.741240
C 5.668900 16.953500 5.916840
C 4.876120 15.440300 4.577710
C 3.580720 13.327400 7.425730
C 0.926285 14.974000 7.473770
C 1.028030 15.151500 6.305610
C 1.337810 14.290900 6.946570
C 1.866580 14.583600 7.750780
C 2.288360 13.815300 6.310180
C 0.843574 14.091000 7.805980
C 4.077380 14.396200 7.697390
C 2.846140 13.883400 7.070500
C 4.479520 13.675200 7.191940
C 0.963277 16.083600 6.591990
C 1.753370 15.710500 6.975050
C 2.140570 15.626400 6.140060
C 1.775180 16.778000 6.724510
C 2.570950 16.387400 7.085770
C 3.542010 16.027900 7.302610
C 4.203480 15.484300 7.688060
C 5.325730 15.754800 7.080370
C 4.315850 15.665200 6.579060
C 5.070380 16.086400 6.054490
C 0.967844 12.951600 8.459030
C 1.697450 11.540000 9.618250
C 5.826730 13.192000 8.802870
C 0.789278 13.463400 9.239000
C 5.696360 14.963400 8.570050
C 4.599930 14.813700 8.408180
C 5.500710 14.685900 9.451600
C 5.232490 14.130500 8.548370
C 1.874210 15.435800 8.213710
C 1.804570 16.365300 8.602400
C 3.040680 16.640700 8.827790
C 2.778550 15.970800 7.929910
C 2.968990 15.868000 9.407830
C 5.029550 15.689000 7.989200
C 2.277080 11.738200 11.416100
C 3.982350 12.758200 11.193400
C 4.168180 11.627700 10.441300
C 3.623680 12.121100 9.876430
C 2.953980 11.876300 10.659200
C 5.181180 13.012600 11.410100
C 5.033450 12.093900 10.012700
C 4.649850 12.808400 10.427300
C 4.382170 15.135800 10.713500
C 4.879740 14.475000 11.505800
C 5.323710 15.022900 10.772800
C 5.285470 13.777300 10.750600
C 5.999870 14.276600 10.306300
C 2.491640 15.446600 10.068300
C 5.494060 15.983400 10.809000
C 4.736300 15.614900 11.498100
C 3.922990 11.943300 12.833900
C 5.961030 12.561500 13.031900
C 4.413680 12.715100 12.077800
C 4.599810 11.811000 12.247400
C 5.389270 13.233100 12.527400
C 3.605620 14.922400 12.729100
C 4.232280 14.200300 12.630900
C 5.812710 13.629600 13.271800
C 5.552580 13.907400 11.827000
C 5.819580 15.065100 11.770600
C 4.491660 13.635400 11.609500
C 5.440620 16.876000 12.035100
C 4.348540 15.221300 12.207600
C 5.693250 15.978700 11.917700
C 3.963370 12.195000 14.441300
C 3.449250 12.047700 13.679100
C 5.858010 12.005800 13.759700
C 4.338730 12.810500 15.065800
C 4.578320 11.712900 13.607800
C 4.591160 14.889700 14.581800
C 4.861300 13.821900 13.375400
C 4.411360 14.109800 14.126500
C 3.404810 16.419000 13.887900
C 3.598740 16.451500 15.127400
C 2.818900 16.878700 14.573100
C 4.280670 15.772500 14.902100
C 4.140520 12.937500 16.012400
C 5.806720 12.904500 16.735600
C 5.066450 12.792900 15.934200
C 5.645960 13.832800 16.727300
C 4.855950 13.706900 16.189200
C 2.688990 16.458500 15.407900
C 5.566000 16.394600 16.875400
C 5.932430 16.750500 15.735800
C 4.998220 16.513600 16.096900
C 1.960560 12.441500 18.621000
C 1.045450 12.854100 18.677500
C 2.421720 11.962900 17.911600
C 5.097540 12.049500 17.503300
C 4.969610 12.934500 17.180000
C 2.156890 16.464500 18.570100
C 4.034230 16.034700 17.659200
C 4.796830 16.428200 18.047200
C 4.754850 15.859800 17.086800
C 1.202690 12.083700 19.273500
C 2.298360 11.681800 19.316300
C 0.680785 11.644800 19.968500
C 2.948490 12.173500 18.859000
C 2.755460 12.652000 19.680100
C 2.535710 15.155300 19.813500
C 3.064540 15.073300 19.009900
C 3.064790 13.462100 19.994700
C 3.133080 14.372900 20.297300
C 3.743330 15.153200 20.614100
C 1.400820 16.317200 19.098200
C 3.643100 15.548000 19.610000
C 3.236050 15.910100 20.421600
C 2.609800 15.990000 19.296600
C 2.738280 11.823800 22.988800
C 3.099620 11.913300 23.864900
C 3.936270 12.569300 23.843700
C 3.687860 12.075000 22.612000
C 4.673160 12.067900 22.696000
C 3.961330 11.872500 24.524400
C 4.375260 12.895700 24.596800
C 4.478090 13.587500 25.236500
C 4.455740 14.043800 24.391100
C 4.412280 14.987600 24.507300
C 2.375840 16.664700 25.774300
C 1.039180 16.156900 24.897300
C 3.962220 16.888600 25.386700
C 5.971160 15.601300 25.266500
C 4.833190 16.853800 26.050500
C 5.002840 16.852500 25.028600
C 5.212100 15.438800 24.793200
C 5.633020 16.345500 26.122100
C 2.149320 16.756800 26.734700
C 5.433640 14.445100 28.649200
C 4.411000 14.940100 29.019100
C 5.570330 13.466800 28.634900
C 1.434470 16.374900 29.094000
C 3.507550 15.215200 29.526400
C 4.178990 15.871900 29.463600
C 3.712130 15.885800 28.561600
C 3.623670 16.756000 28.239400
C 5.202370 15.318100 29.296600
C 5.475380 15.805700 28.240600
C 5.274900 16.290300 29.013200
C 5.614530 16.713800 27.959700
C 3.134850 11.947700 30.776600
C 3.392150 12.863900 31.204600
C 3.744320 11.717100 30.031500
C 4.289320 13.028700 31.492500
C 1.101470 14.609000 31.239500
C 2.649810 14.312600 31.321400
C 3.362270 14.922700 31.374700
C 4.030070 14.226100 31.397200
C 4.322700 14.912500 29.972400
C 4.973570 14.028300 31.084600
C 5.857460 15.136800 31.469200
C 1.704370 16.643700 29.996400
C 1.052650 15.859200 29.830500
C 5.053960 13.348800 32.991200
C 1.758860 14.262100 31.908000
C 0.958892 15.085900 32.049800
C 2.593630 14.571300 32.225600
C 4.559360 14.132300 33.145200
C 5.251760 13.618900 31.907200
C 4.305970 13.464800 32.424200
C 4.775410 14.483900 32.143300
C 5.425560 15.109100 32.395700
C 5.772460 14.999000 33.338900
C 1.608780 16.579700 33.052300
C 1.080800 15.298200 33.281400
C 5.547550 15.957600 31.840400
C 1.226290 18.351700 0.968423
C 0.980145 17.147400 0.707790
C 0.688711 18.732700 1.982750
C 3.622560 17.598800 1.909450
C 4.541410 17.778100 2.013670
C 5.402210 17.822800 1.405140
C 5.206520 18.447600 2.169510
C 5.641840 18.336700 0.631877
C 1.413860 19.103200 1.564950
C 0.597132 18.735700 3.893900
C 4.017530 17.871400 3.145480
C 4.512600 17.805500 3.990930
C 0.900004 20.366400 4.123740
C 1.322830 19.246600 4.184410
C 6.008860 21.650900 3.214600
C 4.699110 22.221400 4.064430
C 1.553970 17.222700 4.971090
C 0.855754 17.079000 4.280160
C 1.056910 17.994700 5.511640
C 1.234880 18.029800 4.605450
C 5.129700 17.488300 4.635520
C 4.721950 18.203200 5.387260
C 5.651010 17.952900 5.523680
C 6.049290 17.443100 4.839310
C 1.183740 19.177200 5.240280
C 4.714040 20.353800 5.927160
C 5.805500 20.416500 4.684130
C 4.219260 21.766700 5.882930
C 5.151560 21.664500 5.684650
C 5.043380 20.792100 5.176490
C 6.020220 21.682400 5.234920
C 0.993304 18.781800 6.053410
C 1.798140 17.445400 6.087500
C 2.422320 17.796700 7.671960
C 5.051700 17.964000 7.102690
C 4.251770 17.699400 7.524170
C 4.531470 17.824500 6.274580
C 1.884900 19.602800 6.141290
C 0.630752 19.893100 6.410130
C 4.204290 20.365200 6.887280
C 2.580960 20.313400 6.279180
C 4.294980 19.541700 6.329570
C 1.266580 21.600900 6.483090
C 2.136890 20.977400 7.700870
C 1.342590 21.468000 7.474800
C 1.198190 20.655800 6.137440
C 0.823752 20.670900 7.323890
C 2.834770 20.722000 7.140650
C 4.580140 21.205200 6.607840
C 1.527200 17.223800 8.910230
C 1.667410 17.328000 7.957150
C 4.111460 18.012500 9.420360
C 2.655280 17.446100 8.601340
C 3.324870 17.482000 9.528950
C 4.600090 18.181600 8.594120
C 5.019720 18.727500 7.918810
C 5.042350 18.667700 9.690840
C 2.301820 19.189400 9.532950
C 3.280500 20.536000 9.102910
C 5.140260 19.066900 8.839130
C 2.139470 21.985900 8.629910
C 2.861560 22.174500 9.261360
C 1.921320 18.137900 10.680000
C 0.815762 18.723300 10.322600
C 3.525450 17.764900 10.430400
C 2.639560 17.447600 10.605400
C 4.276560 18.635700 10.291500
C 2.310880 20.106200 9.783220
C 1.590000 19.387900 10.187100
C 1.091330 20.348500 10.575800
C 0.833778 19.500800 10.953300
C 1.894190 19.006200 10.994300
C 3.202790 19.867600 9.803900
C 4.852950 19.092900 11.193100
C 4.405960 19.967100 11.303700
C 4.944180 20.594300 10.794000
C 4.746550 19.442500 10.241500
C 3.108070 20.736500 10.733600
C 3.576180 22.097100 9.888450
C 2.812590 20.993100 9.865410
C 4.480220 21.572000 10.545600
C 4.482400 22.043800 9.708180
C 4.508990 21.202900 11.433800
C 1.725450 17.541900 13.328400
C 1.496060 17.682900 12.451900
C 3.906910 17.283900 12.545500
C 4.701920 17.440900 11.997600
C 3.333850 20.264500 11.549500
C 2.231420 18.198000 13.795500
C 3.886810 17.077200 13.442400
C 2.750900 19.832900 16.982000
C 5.196940 17.100300 17.511700
C 3.357800 19.419700 17.572200
C 3.322390 19.078000 18.441900
C 3.439450 19.997400 18.394800
C 5.404680 20.357600 17.721900
C 5.201310 22.306400 18.793400
C 4.822760 21.115900 17.443800
C 5.066890 21.504700 18.189700
C 1.633170 17.425200 20.387700
C 1.697700 17.138400 19.477400
C 2.827880 18.620400 20.533800
C 2.350120 19.447100 20.176000
C 2.105490 20.067200 19.299800
C 1.568850 19.933300 20.102200
C 3.334690 19.381500 20.588100
C 2.954740 19.336600 19.375800
C 3.859440 18.957600 19.451500
C 3.800120 20.086000 19.713100
C 4.339240 19.451400 20.172000
C 5.990830 20.573500 20.276700
C 1.393270 22.044800 20.614800
C 2.103130 21.032300 19.759500
C 2.796670 20.651200 18.844300
C 2.485560 21.629400 20.412300
C 3.063920 20.962600 19.893100
C 3.574150 22.082700 19.996200
C 3.724890 20.843800 19.192200
C 5.263750 21.429000 20.518000
C 5.994290 21.457300 19.934100
C 1.892170 18.608200 20.695700
C 1.160200 18.094600 20.940800
C 3.703390 20.221800 20.807800
C 2.376840 21.162900 21.276300
C 1.317280 21.860300 21.586800
C 3.032670 21.994600 22.104800
C 2.964140 21.085600 22.267100
C 3.302160 21.259500 21.072400
C 4.106020 20.803100 21.453900
C 3.859360 20.773500 22.380600
C 3.290810 22.203900 20.944200
C 4.958550 21.389800 22.402500
C 5.799830 21.227700 22.052100
C 4.956520 21.593400 21.438300
C 5.989610 18.424100 23.940300
C 4.891230 20.526700 23.835100
C 5.864550 19.586900 23.896600
C 5.836120 18.883800 23.073200
C 1.168600 22.225600 22.623200
C 2.290930 21.235700 23.617300
C 1.687780 22.213900 23.414100
C 2.592110 22.041700 23.151400
C 5.383160 21.119800 23.303900
C 2.283490 18.536100 25.309100
C 4.038110 17.590400 25.998900
C 2.988420 17.233900 25.366200
C 3.851130 18.555500 25.845300
C 3.161820 18.009400 26.093000
C 4.290840 17.437100 24.654700
C 5.046590 18.341000 24.989400
C 4.979340 17.772000 25.819200
C 5.842140 18.486600 25.522000
C 2.948910 18.969700 25.804800
C 3.183970 19.912800 25.799900
C 4.088990 19.419100 25.591800
C 4.872660 18.899600 25.699600
C 5.672650 20.311000 24.476700
C 5.672860 19.257400 24.817800
C 2.015340 20.790900 24.406900
C 1.577660 21.864700 24.534900
C 0.694413 22.129500 24.723900
C 4.135620 20.730800 24.344600
C 2.517020 21.971400 24.387100
C 3.621660 21.655700 24.971200
C 2.930280 20.779500 25.406900
C 2.942560 20.866700 24.482700
C 4.927360 21.338700 24.429900
C 4.512770 21.635500 25.394300
C 5.293760 21.468000 26.026300
C 5.327020 20.930500 25.226200
C 5.172060 22.178600 24.934800
C 1.552550 17.354900 27.271600
C 2.141350 17.785800 26.342100
C 0.682364 17.015500 27.381800
C 3.570690 18.778600 27.781000
C 1.906880 19.214200 27.788700
C 2.019530 18.839300 26.189600
C 2.019580 20.371300 26.478900
C 1.330070 20.347600 27.143000
C 2.782640 19.533800 27.523700
C 2.511130 19.562100 26.626200
C 3.808230 20.428900 26.786200
C 3.709780 19.937300 27.627900
C 4.387660 19.281400 27.455900
C 4.489940 20.454600 27.501400
C 5.667470 20.485500 26.291600
C 2.965970 20.887200 26.466600
C 3.828400 21.397600 26.208200
C 3.338090 21.527300 27.066900
C 4.747240 20.723000 26.374900
C 1.803710 18.746800 28.817000
C 1.745350 17.139900 28.434700
C 1.583600 18.057200 28.166300
C 2.188190 17.251600 29.457600
C 2.456760 17.990700 28.886000
C 3.555930 18.186500 28.888800
C 2.668350 18.531900 28.011500
C 2.658670 17.347900 28.198800
C 3.536660 17.798700 28.030700
C 3.289020 17.337500 28.981100
C 1.209620 20.131900 28.091600
C 3.236800 19.455300 28.418700
C 4.157330 19.112400 28.458600
C 0.790748 21.023900 28.251800
C 0.990862 18.292400 30.807700
C 1.867060 18.944900 29.962500
C 1.644940 18.973200 31.120800
C 2.458210 19.107300 30.730800
C 1.616210 17.782000 32.895200
C 2.206150 18.802700 32.875900
C 1.049740 17.112900 32.491800
C 2.579880 17.909700 33.001600
C 6.005570 18.287900 32.310100
C 1.113900 20.548100 32.081000
C 0.853849 19.953700 32.802900
C 1.044970 18.939300 32.937900
C 1.709350 19.410200 33.413400
C 0.685564 18.955300 31.650700
C 5.481570 22.550600 3.646470
C 5.457410 24.783200 3.130060
C 4.842660 23.562200 5.694480
C 4.371870 22.818200 4.713690
C 5.507770 22.603800 4.606200
C 5.557910 22.689400 5.594500
C 4.508440 23.670900 4.325780
C 5.296920 23.584700 4.913790
C 5.515610 24.263200 5.764050
C 4.703890 25.353400 5.715590
C 5.713840 24.589700 4.712240
C 5.684250 25.229700 5.725890
C 5.242980 25.466100 4.773030
C 4.087130 23.349300 7.334360
C 5.014560 23.204200 7.675530
C 5.865670 23.618700 6.592230
C 5.867000 22.773900 6.990510
C 5.061780 22.782600 6.407010
C 4.970550 23.878200 6.974120
C 4.311090 22.565300 6.901360
C 4.775280 25.787200 6.597790
C 5.164550 24.328700 7.783910
C 5.935310 24.641800 7.254270
C 5.047940 26.556700 7.201950
C 5.722450 27.187600 6.981500
C 5.027520 27.813900 6.672290
C 2.849280 22.575300 8.230750
C 4.077090 23.524600 18.623700
C 3.423100 22.956200 18.226400
C 4.406370 23.570500 17.758900
C 4.735100 22.637100 17.955000
C 4.026380 26.074000 18.016500
C 4.923940 26.281300 18.404600
C 1.717500 22.888100 20.389600
C 1.473580 23.437800 19.651700
C 0.715136 24.243500 20.580400
C 1.969750 24.046000 20.410600
C 2.728990 22.563200 19.831700
C 2.439470 23.520800 19.782200
C 3.233130 22.991800 19.167700
C 3.073620 24.241500 20.644100
C 4.592020 23.914800 20.196400
C 5.517540 23.551400 20.323900
C 1.208400 24.890100 19.875300
C 2.037930 24.371000 19.517900
C 1.287020 25.921400 19.912600
C 1.767990 25.451000 19.232600
C 4.059720 25.992600 19.015100
C 2.704950 24.850200 19.990600
C 4.627380 25.208300 18.881100
C 4.654090 24.428000 19.364700
C 5.435830 24.495600 20.427800
C 5.745010 26.226400 18.902300
C 1.203970 23.621200 21.073500
C 1.299830 22.760100 21.366600
C 1.036320 23.118900 22.297100
C 3.077160 24.137200 21.694500
C 1.449580 24.843500 20.788300
C 1.612070 25.304800 21.955600
C 2.172490 26.072600 21.896300
C 2.196610 24.332000 21.459200
C 2.462960 25.127900 22.285900
C 2.796220 25.034000 21.114200
C 4.026930 25.964400 22.093600
C 2.988970 25.968500 21.416000
C 3.605660 24.794200 22.201500
C 3.266320 26.532000 22.124700
C 1.975740 23.962100 23.858200
C 1.264180 23.061600 23.705100
C 1.153270 23.985700 23.399900
C 2.851790 23.906700 23.470900
C 3.887330 23.442100 23.942800
C 2.418420 24.170600 22.564200
C 5.694620 23.226600 23.460200
C 5.449860 24.153200 23.376900
C 4.906680 23.241600 23.959500
C 1.892690 25.894900 24.218800
C 2.891120 24.580100 24.187400
C 3.800680 24.360000 23.745100
C 3.059480 24.819700 23.048200
C 3.449880 25.658400 24.030900
C 3.194460 25.754900 22.894500
C 4.118790 25.555900 22.948200
C 5.174990 24.853800 24.284800
C 6.025720 25.365700 24.206500
C 1.115200 26.398000 23.980600
C 2.745160 26.332500 24.192700
C 5.491700 26.181500 24.211200
C 1.091920 24.003300 24.512900
C 1.302670 23.044500 24.716600
C 2.288580 23.575600 24.835000
C 1.472440 23.734200 25.377700
C 2.302810 22.689200 25.038100
C 4.140380 23.372200 25.940200
C 3.173250 23.788100 24.504300
C 4.058380 23.270300 24.954400
C 3.151800 23.421800 25.586500
C 3.457000 22.499900 25.459400