475
Atoms. Timestep: 0
H 5.888520 7.468190 6.692840
H 5.833710 7.520800 6.702670
H 5.455610 8.408370 6.671230
H 5.544360 9.433990 6.561460
H 5.422370 8.470570 6.679040
H 5.534060 9.493400 6.564310
H 9.349290 9.046070 6.013200
H 9.326290 9.015890 5.999030
H 8.914960 9.965660 5.975410
H 8.090810 10.587900 6.049210
H 8.916380 9.986260 5.991590
H 6.727080 6.865360 6.620500
H 6.657850 6.898570 6.628860
H 7.064770 7.796290 6.481360
H 7.016090 7.820900 6.483950
H 7.746610 6.761420 6.473600
H 7.673980 6.770630 6.477390
H 8.673920 7.184210 6.291490
H 8.609810 7.171240 6.288860
H 6.398350 8.606900 6.509040
H 6.429030 8.567800 6.506720
H 7.402450 8.727220 6.342220
H 7.374330 8.743230 6.339040
H 6.756590 9.529230 6.364130
H 6.766720 9.498730 6.367580
H 7.740130 9.658150 6.203080
H 7.732570 9.665560 6.194120
H 8.350310 8.879560 6.169030
H 8.038180 7.955720 6.316850
H 7.992070 7.957230 6.313950
H 8.375870 8.886650 6.177710
H 9.214600 7.993060 6.113760
H 9.260540 8.020450 6.122970
H 6.130980 10.270200 6.392950
H 7.058290 10.693000 6.210840
H 7.074690 10.715800 6.200680
H 6.138850 10.315200 6.389220
H 8.077820 10.589100 6.063930
H 1.321500 2.814200 7.262130
H 1.298750 2.845660 7.224630
H 2.076030 3.513210 7.373070
H 2.112310 3.444700 7.380980
H 2.138050 3.499660 7.408390
H 2.117720 3.520540 7.386060
H 2.093410 3.488660 7.407330
H 1.356480 2.839080 7.251550
H 1.342970 2.850170 7.237120
H 1.331330 2.781300 7.233300
H 0.910114 3.663980 7.624900
H 0.904581 3.603980 7.608950
H 0.870090 3.658470 7.619120
H 0.929436 3.659890 7.630920
H 0.883976 3.631490 7.637140
H 1.435230 4.434580 7.863370
H 1.466580 4.398930 7.837500
H 1.428380 4.454370 7.853380
H 1.491870 4.451910 7.868400
H 1.465090 4.462600 7.857800
H 2.415330 4.437460 7.693140
H 2.481350 4.423120 7.726510
H 2.424010 4.420380 7.714590
H 2.455320 4.371210 7.690400
H 2.452910 4.447410 7.702910
H 1.601820 6.016560 8.441690
H 2.268470 5.312580 8.078650
H 2.294390 5.362000 8.120670
H 2.225720 5.370780 8.099080
H 2.258730 5.382410 8.102760
H 2.224740 5.359720 8.101580
H 1.039820 5.221610 8.213140
H 1.064830 5.272730 8.247770
H 0.997711 5.251880 8.238380
H 1.032230 5.276410 8.245590
H 0.999723 5.267180 8.247870
H 1.548970 6.054970 8.464600
H 0.618275 6.339660 8.729390
H 1.558010 6.063080 8.482120
H 0.633993 6.294530 8.682250
H 0.658735 6.343050 8.722570
H 1.587210 6.075020 8.478480
H 1.627260 6.064750 8.485250
H 3.940460 0.607004 24.027700
H 2.230150 1.508560 26.060800
H 2.225090 1.576740 26.056800
H 3.063310 1.078610 24.310600
H 3.031930 1.009990 24.297700
H 2.415880 1.357800 25.053500
H 2.435440 1.433550 25.053300
H 3.218860 0.990116 25.522600
H 3.528480 0.860925 25.168600
H 3.109370 1.109990 26.041800
H 3.993640 0.643244 26.026700
H 4.021830 0.622434 25.991800
H 4.076140 0.654482 26.989800
H 3.155420 1.141380 27.772900
H 2.488620 1.469790 27.052300
H 2.524500 1.421890 27.049600
H 3.574530 0.892310 26.899800
H 3.273160 1.022160 26.520700
H 3.220050 1.121010 27.754900
H 4.046820 0.679484 28.025700
H 4.130440 0.686529 27.987800
H 5.349800 5.912870 30.023200
H 5.306940 5.957450 29.996900
H 5.341480 5.907880 30.018500
H 5.576930 5.239580 30.773300
H 5.583760 5.243790 30.777800
H 5.535810 5.285600 30.750600
H 5.645600 6.627780 29.335300
H 5.607940 6.672090 29.311000
H 5.635110 6.625950 29.332900
H 3.913210 33.375300 23.995700
H 4.831860 32.962000 24.280500
H 4.823600 32.940800 24.228600
H 3.967520 33.407300 24.993700
H 4.412750 33.211100 25.153600
H 4.877920 32.993400 26.011600
H 4.770490 33.039600 25.462900
H 5.498660 32.633600 25.001100
H 5.519160 32.639900 24.933900
H 5.813500 32.553200 25.922700
H 5.762190 32.526700 25.996600
H 5.011730 33.051800 27.685900
H 4.824800 33.071700 26.460900
H 5.551840 32.669900 27.000100
H 4.458810 33.242500 26.884800
H 5.627770 32.704000 26.930000
H 4.923970 33.024800 27.742800
H 6.284790 4.799810 31.396900
H 6.410140 5.701360 30.500200
H 7.295980 5.391890 30.993300
H 7.784460 5.539710 30.965300
H 7.248410 5.423880 30.969600
H 6.797190 5.446850 30.836100
H 6.278370 4.800110 31.395100
H 6.455330 5.663830 30.524900
H 6.233230 4.836550 31.370100
H 6.328750 6.000740 30.147700
H 8.167550 5.811940 30.740400
H 8.961000 5.562160 31.188600
H 8.996920 5.561250 31.221000
H 9.008200 5.539990 31.208800
H 8.122740 5.839640 30.719200
H 7.265060 4.699890 31.714500
H 7.257840 4.707230 31.717400
H 7.212340 4.730640 31.689400
H 8.252900 4.985830 31.653600
H 8.261890 4.970820 31.645700
H 8.210770 4.996230 31.623000
H 7.320540 6.810370 29.530000
H 7.357820 6.775880 29.550800
H 7.356610 7.503610 28.810200
H 7.374190 7.479970 28.836600
H 7.388740 7.467870 28.829500
H 6.847570 6.647480 29.588700
H 6.379130 7.201370 28.900300
H 6.358180 7.238020 28.876600
H 6.391910 7.196950 28.898400
H 7.834840 6.740340 29.717900
H 8.335720 7.397690 29.129500
H 8.369010 7.367960 29.147200
H 8.353660 7.387090 29.158800
H 9.033140 6.948650 29.749000
H 7.284470 6.117120 30.249800
H 7.316010 6.093600 30.277000
H 7.326900 6.083880 30.272000
H 6.486250 6.355830 29.803700
H 6.446210 6.394600 29.780400
H 8.303280 6.186460 30.406200
H 9.070040 6.923980 29.766300
H 9.055100 6.947620 29.780700
H 8.198470 6.503930 30.019200
H 8.158810 6.532880 29.999400
H 9.304000 6.254900 30.520900
H 9.290550 6.279320 30.535500
H 9.262010 6.276800 30.502700
H 3.943540 11.123000 25.263700
H 3.904300 11.081100 25.278500
H 3.609470 10.428100 25.954600
H 3.561030 10.392700 25.971400
H 2.593840 10.520100 27.675100
H 3.063530 10.181100 26.854300
H 2.545090 10.503000 27.690600
H 3.063980 11.202600 26.753700
H 3.024470 11.176600 26.767400
H 3.115450 10.207500 26.837300
H 2.184410 11.282300 28.243700
H 2.144640 11.272100 28.256300
H 3.444860 11.626600 25.979500
H 4.001350 12.061800 24.961200
H 4.028130 12.105900 24.949600
H 3.840590 13.113400 25.096600
H 3.826190 13.072000 25.104600
H 3.405800 12.622000 25.892500
H 3.426550 12.655600 25.883400
H 3.478020 11.660400 25.966900
H 3.431170 13.875600 25.665200
H 3.425730 13.841100 25.670300
H 2.598460 11.740000 27.456900
H 2.565030 11.722100 27.468400
H 2.546990 12.735200 27.373400
H 2.525970 12.717500 27.381400
H 3.012500 12.197800 26.670100
H 2.985410 12.172000 26.680400
H 2.961030 13.193000 26.586600
H 2.946360 13.167500 26.593500
H 2.409790 13.951400 27.389500
H 2.415540 13.967500 27.385700
H 2.909560 14.188200 26.503000
H 2.907300 14.163000 26.506600
H 1.969470 12.282300 28.399700
H 1.996870 12.289800 28.390600
H 2.081470 13.272600 28.076600
H 2.066530 13.263000 28.082400
H 1.185550 18.264000 28.146600
H 1.168820 18.251400 28.131200
H 0.907439 17.267200 28.175800
H 0.888821 17.254800 28.148500
H 0.925231 19.249000 27.999600
H 0.940064 19.259500 28.003100
H 5.372210 20.399500 1.838400
H 5.408600 20.411000 1.821490
H 5.790000 20.012900 4.000830
H 5.814510 20.052900 3.991090
H 5.660490 20.202100 3.027450
H 4.763590 20.066000 2.606650
H 4.794760 20.091600 2.591560
H 5.690430 20.228900 3.014550
H 4.660900 19.845800 3.588310
H 4.635620 19.805500 3.600400
H 5.838410 19.801200 5.204350
H 5.820810 19.744100 5.210260
H 5.022590 19.687600 4.553390
H 5.042910 19.739500 4.544650
H 6.298390 20.716500 1.501510
H 6.337960 20.718400 1.484440
H 7.333810 20.931500 1.670720
H 7.293980 20.932200 1.686260
H 8.092200 20.988600 2.343130
H 8.129310 20.993100 2.330410
H 6.462030 20.542300 2.460990
H 6.427900 20.527300 2.474890
H 6.557400 20.338100 3.448260
H 5.823430 10.801900 14.915300
H 5.385800 9.909540 14.804500
H 5.338570 9.875340 14.835400
H 4.655640 11.450600 13.809500
H 4.692280 11.494900 13.801600
H 4.849990 10.548800 14.191200
H 4.804420 10.510100 14.216100
H 5.523530 11.080500 14.613100
H 5.476670 11.594500 14.413800
H 5.914290 12.486900 14.524600
H 5.559710 13.226000 13.984200
H 5.567530 13.279500 14.023200
H 4.954910 12.494400 13.740100
H 5.587370 12.047700 14.367400
H 4.932090 12.444600 13.724700
H 6.178810 10.683500 15.255800
H 6.156130 9.748520 15.477100
H 6.114970 9.716280 15.501500
H 7.567200 10.893900 16.312000
H 6.607820 10.901500 15.527500
H 7.553200 10.856900 16.295500
H 6.954580 10.108800 16.028900
H 6.925580 10.075600 16.036000
H 6.897920 11.253900 15.652800
H 6.261050 11.694200 15.026000
H 6.306490 12.618000 14.764400
H 6.698680 12.586500 15.136800
H 6.242650 11.650800 15.010100
H 6.370320 13.585300 14.518700
H 6.365970 13.639800 14.575000
H 6.961760 12.221100 15.407100
H 7.045440 11.793800 15.638300
H 7.672120 12.839600 15.860900
H 7.680880 12.791400 15.804100
H 7.829830 11.893500 16.250500
H 7.829660 11.851000 16.210700
H 7.146720 13.426200 15.184800
H 7.136310 13.478800 15.247600
H 1.401610 16.856100 25.343300
H 1.363760 16.865900 25.300100
H 2.189660 17.517900 25.457000
H 2.146180 17.532400 25.423900
H 1.386860 18.094800 25.306400
H 1.339040 18.104800 25.279100
H 2.496060 18.505700 25.470200
H 2.547490 18.488800 25.489900
H 0.678837 19.667200 25.144100
H 1.425770 19.101000 25.280400
H 1.664200 20.317000 25.304500
H 2.379220 19.508700 25.433400
H 2.319640 19.524900 25.426500
H 1.481640 19.090300 25.294600
H 1.729940 20.304400 25.302500
H 0.618628 19.673400 25.135600
H 0.705359 20.669600 25.136900
H 0.773616 20.662700 25.132300
H 3.889480 22.076000 10.430800
H 3.622630 21.845800 11.424300
H 3.910500 22.042100 10.449400
H 3.603030 21.857600 11.401400
H 3.465510 22.169300 12.395100
H 3.452500 22.157500 12.380800
H 4.555540 23.658100 9.463310
H 4.547280 23.710400 9.484200
H 4.110290 23.791900 11.434200
H 4.110560 23.785400 11.409000
H 3.999890 22.933900 10.932500
H 4.010530 22.913700 10.929200
H 4.235100 22.754100 9.729070
H 4.251960 22.705400 9.731610
H 4.333050 23.721800 10.436200
H 4.328780 23.751100 10.459200
H 4.617560 25.726300 11.466900
H 4.598480 25.724900 11.393800
H 4.739890 24.644900 9.716360
H 4.742360 24.688500 9.761820
H 4.433080 24.593400 10.916000
H 4.755600 25.401400 10.423000
H 4.439190 24.609100 10.960900
H 4.768090 25.426300 10.487600
H 3.481230 22.925800 13.101700
H 3.478230 22.895400 13.106600
H 3.781400 22.974700 11.907500
H 3.891800 23.832700 12.409200
H 3.888070 23.849000 12.381900
H 3.788040 22.977300 11.902100
H 3.969150 24.865300 13.086500
H 3.985490 24.829800 13.139300
H 4.210590 24.657000 11.888900
H 4.220700 24.649900 11.935900
H 4.310620 25.528700 12.368700
H 4.331110 25.507900 12.437600
H 3.665580 23.912600 13.354800
H 3.673310 23.873500 13.384200
H 2.772280 25.939600 18.296600
H 2.797240 25.897200 18.331900
H 3.017420 26.817700 17.912300
H 3.009320 26.865100 17.897900
H 3.429400 27.764100 17.992400
H 3.427980 27.806100 18.003100
H 2.827840 25.249300 19.138800
H 2.780380 25.277400 19.092400
H 3.031430 25.056100 20.072100
H 3.101040 25.047600 20.116800
H 3.280520 26.081900 19.458100
H 3.233750 26.100100 19.435500
H 3.638420 26.130300 20.390600
H 3.572650 26.128900 20.375900
H 3.375320 26.866100 18.844800
H 3.348220 26.893900 18.838300
H 3.828000 27.698600 19.164100
H 3.801600 27.716600 19.181400
H 3.687130 26.922700 19.778700
H 3.733210 26.914500 19.777300
H 4.185890 27.747000 20.096600
H 4.140500 27.745300 20.121800
H 3.543620 25.346100 21.003800
H 3.458180 25.335000 20.973200
H 4.037010 26.064800 21.562200
H 3.946270 26.039300 21.554200
H 4.091100 26.962800 20.709900
H 4.026030 26.951500 20.719100
H 4.448990 27.011200 21.642400
H 4.669170 27.931700 21.222800
H 4.601970 27.905800 21.260800
H 4.364930 26.980300 21.659400
H 4.234780 24.579000 24.103400
H 4.270630 24.608600 24.082700
H 4.256190 24.649200 24.115700
H 2.215230 24.136400 26.005600
H 2.205900 24.091200 25.945300
H 2.198330 24.116800 26.011100
H 3.378570 24.076400 24.397000
H 3.411300 24.096500 24.349400
H 3.398420 24.140100 24.393100
H 2.633180 23.907300 25.095300
H 2.651380 23.952500 25.084800
H 2.655560 23.907100 25.031100
H 3.231510 24.645900 25.512100
H 3.212660 24.613900 25.501300
H 3.226720 24.604000 25.464900
H 4.033920 24.994300 25.027600
H 4.013470 24.949800 25.005400
H 4.034260 24.954800 24.990600
H 3.811650 25.339400 25.939500
H 3.797880 25.300900 25.898600
H 3.792150 25.320600 25.907300
H 4.972390 25.280200 24.293200
H 5.003290 25.306200 24.302600
H 4.994850 25.343100 24.327000
H 5.412960 26.002400 24.950200
H 5.393750 25.992300 24.915500
H 4.614050 25.687700 25.454900
H 4.605420 25.651700 25.424400
H 4.592950 25.656400 25.411400
H 5.416460 26.036100 24.970300
H 5.408070 26.542300 25.873300
H 5.389870 26.510700 25.851800
H 5.385970 26.524400 25.803500
H 2.190550 24.648900 26.899200
H 2.182810 24.599400 26.847000
H 2.206840 24.642700 26.908600
H 3.009240 24.991000 26.424000
H 2.991350 24.984700 26.403300
H 2.990350 24.950200 26.372800
H 2.592480 25.295600 27.494500
H 2.611910 25.361000 27.521500
H 2.628450 25.335600 27.551900
H 3.367110 26.029600 27.763200
H 3.325140 25.993200 27.714400
H 3.349520 26.062200 27.711300
H 3.570830 25.691400 26.809300
H 3.561510 25.647100 26.806500
H 3.589380 25.684500 26.851300
H 4.391780 26.032800 26.366800
H 4.371630 26.027200 26.313400
H 4.369050 25.997800 26.332300
H 4.184460 26.505300 27.447800
H 4.205730 26.564700 27.417700
H 4.224870 26.538600 27.485800
H 4.971920 26.726300 26.794100
H 4.951120 26.733900 26.719400
H 4.940210 26.694700 26.766000
H 3.916070 28.510400 18.584100
H 3.922790 28.482800 18.550800
H 4.342820 28.789300 19.485200
H 4.365370 28.781300 19.437900
H 4.638570 28.579600 20.415900
H 4.593870 28.568000 20.464900
H 9.679130 4.058450 13.248700
H 9.746540 4.089610 13.248300
H 11.260400 4.926460 13.158300
H 10.287900 4.544220 12.491900
H 10.205500 4.490500 12.468900
H 11.039000 4.997120 12.121900
H 11.125900 5.064300 12.177000
H 11.195400 4.882960 13.103000
H 9.600980 3.816740 14.252400
H 9.646860 3.822300 14.243500
H 11.508200 4.654650 15.065100
H 11.351800 4.768810 14.084000
H 10.570700 4.439110 13.693900
H 10.705200 4.301260 14.675200
H 10.671900 4.299470 14.647500
H 11.394900 4.788610 14.139600
H 10.515500 4.413630 13.666400
H 11.529400 4.650760 15.120900
H 10.015600 3.813920 15.210900
H 9.991960 3.830130 15.210900
H 10.753800 4.066700 15.891200
H 10.747300 4.095040 15.867500
H 11.461500 16.669500 28.186100
H 3.316780 5.801980 20.490200
H 4.380740 5.279510 20.128400
H 4.550880 5.841200 19.275500
H 2.082680 5.762750 21.705000
H 2.955730 5.234210 21.531000
H 3.796880 5.057330 20.954000
H 3.590680 7.330490 18.348100
H 2.717630 7.859030 18.522000
H 4.261700 6.591910 18.623900
H 1.979580 6.899330 20.402000
H 1.292620 7.813740 19.924700
H 2.356580 7.291270 19.562800
H 3.213680 6.938560 19.187300
H 2.836680 6.546620 20.026500
H 3.693780 6.193910 19.651000
H 1.876480 8.035910 19.099100
H 1.122480 7.252040 20.777500
H 1.411670 6.501330 21.429200
H 2.459680 6.154690 20.865700
H 11.439300 16.653800 28.284700
1900
Atoms. Timestep: 0
H 5.888520 7.468190 6.692840
H 5.833710 7.520800 6.702670
H 5.455610 8.408370 6.671230
H 5.544360 9.433990 6.561460
H 5.422370 8.470570 6.679040
H 5.534060 9.493400 6.564310
H 9.349290 9.046070 6.013200
H 9.326290 9.015890 5.999030
H 8.914960 9.965660 5.975410
H 8.090810 10.587900 6.049210
H 8.916380 9.986260 5.991590
H 6.727080 6.865360 6.620500
H 6.657850 6.898570 6.628860
H 7.064770 7.796290 6.481360
H 7.016090 7.820900 6.483950
H 7.746610 6.761420 6.473600
H 7.673980 6.770630 6.477390
H 8.673920 7.184210 6.291490
H 8.609810 7.171240 6.288860
H 6.398350 8.606900 6.509040
H 6.429030 8.567800 6.506720
H 7.402450 8.727220 6.342220
H 7.374330 8.743230 6.339040
H 6.756590 9.529230 6.364130
H 6.766720 9.498730 6.367580
H 7.740130 9.658150 6.203080
H 7.732570 9.665560 6.194120
H 8.350310 8.879560 6.169030
H 8.038180 7.955720 6.316850
H 7.992070 7.957230 6.313950
H 8.375870 8.886650 6.177710
H 9.214600 7.993060 6.113760
H 9.260540 8.020450 6.122970
H 6.130980 10.270200 6.392950
H 7.058290 10.693000 6.210840
H 7.074690 10.715800 6.200680
H 6.138850 10.315200 6.389220
H 8.077820 10.589100 6.063930
H 1.321500 2.814200 7.262130
H 1.298750 2.845660 7.224630
H 2.076030 3.513210 7.373070
H 2.112310 3.444700 7.380980
H 2.138050 3.499660 7.408390
H 2.117720 3.520540 7.386060
H 2.093410 3.488660 7.407330
H 1.356480 2.839080 7.251550
H 1.342970 2.850170 7.237120
H 1.331330 2.781300 7.233300
H 0.910114 3.663980 7.624900
H 0.904581 3.603980 7.608950
H 0.870090 3.658470 7.619120
H 0.929436 3.659890 7.630920
H 0.883976 3.631490 7.637140
H 1.435230 4.434580 7.863370
H 1.466580 4.398930 7.837500
H 1.428380 4.454370 7.853380
H 1.491870 4.451910 7.868400
H 1.465090 4.462600 7.857800
H 2.415330 4.437460 7.693140
H 2.481350 4.423120 7.726510
H 2.424010 4.420380 7.714590
H 2.455320 4.371210 7.690400
H 2.452910 4.447410 7.702910
H 1.601820 6.016560 8.441690
H 2.268470 5.312580 8.078650
H 2.294390 5.362000 8.120670
H 2.225720 5.370780 8.099080
H 2.258730 5.382410 8.102760
H 2.224740 5.359720 8.101580
H 1.039820 5.221610 8.213140
H 1.064830 5.272730 8.247770
H 0.997711 5.251880 8.238380
H 1.032230 5.276410 8.245590
H 0.999723 5.267180 8.247870
H 1.548970 6.054970 8.464600
H 0.618275 6.339660 8.729390
H 1.558010 6.063080 8.482120
H 0.633993 6.294530 8.682250
H 0.658735 6.343050 8.722570
H 1.587210 6.075020 8.478480
H 1.627260 6.064750 8.485250
H 32.141800 2.879470 7.545100
H 32.194500 2.896670 7.535330
H 32.160900 2.842590 7.559700
H 32.184200 2.880560 7.546900
H 32.170800 2.836750 7.527490
H 32.739200 3.679170 7.779800
H 32.712100 3.645690 7.785920
H 32.700100 3.675370 7.779360
H 32.756900 3.688690 7.772810
H 32.732800 3.631700 7.756040
H 33.153200 2.615920 7.295990
H 33.163000 2.618370 7.298010
H 33.108700 2.613700 7.287600
H 33.138600 2.558780 7.286930
H 33.132100 2.577720 7.317900
H 31.512700 3.573170 7.922620
H 31.474100 3.571760 7.928140
H 31.504100 3.540730 7.890530
H 31.485100 3.537840 7.922720
H 31.527300 3.599410 7.899920
H 31.318500 4.508170 8.322480
H 31.340400 4.538300 8.294080
H 31.284500 4.505080 8.334080
H 31.285800 4.477180 8.309710
H 31.317300 4.482100 8.278780
H 31.616400 5.408900 8.616970
H 33.294800 4.426660 7.984590
H 33.294200 4.477790 8.012690
H 33.263400 4.448780 8.012150
H 33.258400 4.471270 8.013610
H 33.319300 4.480710 8.010290
H 31.653700 5.435040 8.639320
H 31.683700 5.461750 8.612200
H 31.660300 5.408610 8.588200
H 31.623800 5.429340 8.654150
H 32.306400 4.492980 8.167580
H 32.329900 4.509500 8.152180
H 32.825900 5.266070 8.387160
H 32.271400 4.488180 8.173850
H 32.861300 5.291600 8.400480
H 32.306000 4.454380 8.131690
H 32.274600 4.462980 8.160930
H 32.892300 5.301520 8.389660
H 32.868000 5.249330 8.360240
H 32.829700 5.284080 8.408100
H 32.465200 6.122340 8.769040
H 33.408100 6.328850 8.739630
H 32.388300 6.083370 8.762160
H 32.401100 6.096890 8.802590
H 32.428500 6.105410 8.788260
H 32.441300 6.072010 8.735880
H 33.394700 6.319840 8.706390
H 3.940460 0.607004 24.027700
H 2.230150 1.508560 26.060800
H 2.225090 1.576740 26.056800
H 3.063310 1.078610 24.310600
H 3.031930 1.009990 24.297700
H 2.415880 1.357800 25.053500
H 2.435440 1.433550 25.053300
H 3.218860 0.990116 25.522600
H 3.528480 0.860925 25.168600
H 3.109370 1.109990 26.041800
H 3.993640 0.643244 26.026700
H 4.021830 0.622434 25.991800
H 4.076140 0.654482 26.989800
H 3.155420 1.141380 27.772900
H 2.488620 1.469790 27.052300
H 2.524500 1.421890 27.049600
H 3.574530 0.892310 26.899800
H 3.273160 1.022160 26.520700
H 3.220050 1.121010 27.754900
H 4.046820 0.679484 28.025700
H 4.130440 0.686529 27.987800
H 5.349800 5.912870 30.023200
H 5.306940 5.957450 29.996900
H 5.341480 5.907880 30.018500
H 5.576930 5.239580 30.773300
H 5.583760 5.243790 30.777800
H 5.535810 5.285600 30.750600
H 5.645600 6.627780 29.335300
H 5.607940 6.672090 29.311000
H 5.635110 6.625950 29.332900
H 3.913210 33.375300 23.995700
H 4.831860 32.962000 24.280500
H 4.823600 32.940800 24.228600
H 3.967520 33.407300 24.993700
H 4.412750 33.211100 25.153600
H 4.877920 32.993400 26.011600
H 4.770490 33.039600 25.462900
H 5.498660 32.633600 25.001100
H 5.519160 32.639900 24.933900
H 5.813500 32.553200 25.922700
H 5.762190 32.526700 25.996600
H 5.011730 33.051800 27.685900
H 4.824800 33.071700 26.460900
H 5.551840 32.669900 27.000100
H 4.458810 33.242500 26.884800
H 5.627770 32.704000 26.930000
H 4.923970 33.024800 27.742800
H 6.284790 4.799810 31.396900
H 6.410140 5.701360 30.500200
H 7.295980 5.391890 30.993300
H 7.784460 5.539710 30.965300
H 7.248410 5.423880 30.969600
H 6.797190 5.446850 30.836100
H 6.278370 4.800110 31.395100
H 6.455330 5.663830 30.524900
H 6.233230 4.836550 31.370100
H 6.328750 6.000740 30.147700
H 8.167550 5.811940 30.740400
H 8.961000 5.562160 31.188600
H 8.996920 5.561250 31.221000
H 9.008200 5.539990 31.208800
H 8.122740 5.839640 30.719200
H 7.265060 4.699890 31.714500
H 7.257840 4.707230 31.717400
H 7.212340 4.730640 31.689400
H 8.252900 4.985830 31.653600
H 8.261890 4.970820 31.645700
H 8.210770 4.996230 31.623000
H 7.320540 6.810370 29.530000
H 7.357820 6.775880 29.550800
H 7.356610 7.503610 28.810200
H 7.374190 7.479970 28.836600
H 7.388740 7.467870 28.829500
H 6.847570 6.647480 29.588700
H 6.379130 7.201370 28.900300
H 6.358180 7.238020 28.876600
H 6.391910 7.196950 28.898400
H 7.834840 6.740340 29.717900
H 8.335720 7.397690 29.129500
H 8.369010 7.367960 29.147200
H 8.353660 7.387090 29.158800
H 9.033140 6.948650 29.749000
H 7.284470 6.117120 30.249800
H 7.316010 6.093600 30.277000
H 7.326900 6.083880 30.272000
H 6.486250 6.355830 29.803700
H 6.446210 6.394600 29.780400
H 8.303280 6.186460 30.406200
H 9.070040 6.923980 29.766300
H 9.055100 6.947620 29.780700
H 8.198470 6.503930 30.019200
H 8.158810 6.532880 29.999400
H 9.304000 6.254900 30.520900
H 9.290550 6.279320 30.535500
H 9.262010 6.276800 30.502700
H 22.453100 26.882800 0.852553
H 22.455400 23.789800 32.074800
H 21.842200 25.689300 32.201400
H 21.856400 25.696300 32.174000
H 22.025900 24.709600 31.910200
H 22.003700 24.707600 31.915100
H 22.464400 25.339400 32.883300
H 22.464600 25.317800 32.890400
H 22.012800 26.491700 32.818000
H 22.014300 26.471900 32.856900
H 24.124100 1.660300 27.878000
H 24.131500 1.656890 27.861700
H 24.908000 1.089730 27.587100
H 24.762000 1.977770 27.176300
H 25.541400 1.415240 26.885000
H 25.529800 1.399630 26.900200
H 24.764900 1.982400 27.159700
H 24.891900 1.082160 27.601800
H 26.167800 1.717090 26.198600
H 26.174800 1.740740 26.182900
H 26.536000 0.810691 26.459300
H 26.515100 0.781156 26.472800
H 23.855300 2.783900 27.429400
H 23.846200 2.775390 27.410700
H 25.478600 2.482900 26.300400
H 25.474100 2.496350 26.282900
H 24.621800 2.875060 26.732200
H 24.632100 2.873380 26.750900
H 23.280000 1.368770 28.714900
H 23.268600 1.383160 28.730800
H 23.355000 2.224050 28.136400
H 23.356200 2.238440 28.154100
H 24.253900 0.764686 28.303400
H 24.274600 0.764225 28.289200
H 24.131900 23.473500 1.550270
H 24.159600 23.420600 1.484860
H 23.393500 23.996500 0.699107
H 24.288300 24.268900 2.194210
H 23.382000 24.032500 0.737221
H 23.691600 23.082400 0.698777
H 23.700100 23.046800 0.635777
H 24.331600 24.203200 2.140380
H 23.709300 24.574800 1.451410
H 23.680300 24.625700 1.484940
H 23.072400 24.982600 0.775665
H 23.086900 24.946300 0.762436
H 23.370700 25.575800 1.523380
H 23.402700 25.524500 1.514740
H 22.780400 25.896000 0.825765
H 22.762700 25.932700 0.814109
H 23.718500 26.102700 2.267040
H 23.669000 26.169100 2.271100
H 22.473800 26.845800 0.889095
H 23.097600 26.710600 1.704240
H 23.059300 26.764700 1.683450
H 24.170200 25.185000 2.426670
H 24.118900 25.255600 2.458060
H 23.085400 23.200500 32.684800
H 23.076300 23.181900 32.637600
H 22.475700 23.796100 32.097200
H 22.774000 24.389300 32.844900
H 22.771200 24.368000 32.827100
H 25.659700 33.320900 27.325700
H 25.928400 32.197300 27.774300
H 25.684500 33.339500 27.312400
H 25.969900 32.221000 27.763500
H 26.461000 32.772300 27.037800
H 26.427500 32.742800 27.049600
H 27.596100 29.309300 28.990700
H 27.518000 29.350200 29.043500
H 27.870300 28.383500 29.157900
H 27.453000 30.326700 29.381400
H 27.497200 30.286400 29.318200
H 23.616000 33.264200 29.005000
H 23.641300 33.255700 28.991200
H 25.194200 32.121300 28.441900
H 24.305200 32.498300 28.903300
H 24.341900 32.500000 28.891300
H 25.151600 32.107900 28.452800
H 25.051100 33.014000 28.014500
H 25.021700 33.003500 28.027300
H 27.695500 31.021200 30.020100
H 27.693000 31.051200 30.080900
H 29.522900 4.908590 29.544700
H 29.476600 4.835510 29.566200
H 29.470500 4.862780 29.578300
H 30.124500 5.346950 28.938300
H 30.204600 5.387350 28.930100
H 30.141800 5.326300 28.942900
H 31.149200 5.781600 28.774700
H 31.076100 5.739900 28.776500
H 31.056800 5.755860 28.750000
H 32.029400 5.965490 29.111600
H 32.103500 5.985690 29.120300
H 32.017600 5.979950 29.064000
H 29.559200 4.198950 31.414300
H 29.576600 4.173010 31.452600
H 29.546900 4.133830 31.437800
H 29.269900 4.433090 30.498600
H 29.258900 4.399030 30.479400
H 29.286600 4.473610 30.454000
H 30.643800 5.206520 29.781300
H 30.695100 5.229650 29.787200
H 30.644100 5.182260 29.795500
H 30.202700 4.718630 30.563700
H 30.705000 4.574590 31.416300
H 30.735700 4.609160 31.404500
H 30.726500 4.615080 31.406200
H 30.236100 4.772780 30.549100
H 30.216500 4.749590 30.561500
H 31.185500 5.071950 30.644300
H 31.146500 5.038220 30.648100
H 31.163000 5.066090 30.624300
H 33.084400 5.670300 30.834500
H 31.644500 5.528820 29.882300
H 31.590300 5.523020 29.844200
H 32.811900 5.944960 29.874300
H 32.749300 5.959180 29.796100
H 31.587900 5.501860 29.879800
H 32.746000 5.942620 29.858400
H 33.056000 5.699100 30.750100
H 31.648800 4.894190 31.500700
H 31.676000 4.914260 31.501400
H 31.682200 4.925660 31.467400
H 32.090300 5.357820 30.732400
H 32.109500 5.382590 30.687200
H 32.135000 5.371130 30.739400
H 33.034100 5.677420 30.816800
H 30.267500 4.158210 32.168200
H 30.263600 4.110960 32.184600
H 30.308400 4.152230 32.184700
H 31.221800 4.362310 32.513800
H 31.216800 4.336550 32.519700
H 31.269100 4.376320 32.498700
H 32.848200 5.235310 31.743800
H 32.855500 5.269410 31.670400
H 32.816300 5.240940 31.730000
H 32.201400 4.785240 32.310400
H 32.166400 4.756560 32.358500
H 32.151200 4.750150 32.353300
H 28.415700 27.685500 29.693900
H 28.507100 27.670100 29.685800
H 29.007900 27.443300 30.507800
H 29.075100 27.447200 30.522200
H 29.488300 27.721800 31.381500
H 29.517500 27.742800 31.410300
H 27.965800 28.351700 29.125200
H 28.101300 29.345700 29.852900
H 28.054300 29.368400 29.887400
H 28.606500 29.382000 30.715200
H 28.590600 29.386500 30.731200
H 29.127000 29.404700 31.575000
H 29.111700 29.418300 31.577500
H 28.556800 28.526000 30.200500
H 29.039500 28.554100 31.056300
H 28.503100 28.536000 30.212500
H 29.062000 28.562400 31.062700
H 28.656200 30.237900 31.229900
H 28.678100 30.237000 31.249800
H 28.141800 30.218900 30.406000
H 28.151000 30.201600 30.367600
H 28.137900 31.316700 30.908200
H 28.173400 31.329700 30.954600
H 29.728200 28.446300 32.081000
H 29.715800 28.477500 32.112200
H 29.663300 29.422800 32.418800
H 29.616900 29.454700 32.439700
H 29.311000 30.389500 32.304400
H 29.247200 30.412300 32.305200
H 28.705900 31.093900 31.744600
H 28.765600 31.087500 31.768500
H 22.079600 14.368300 16.477600
H 21.059100 14.515000 16.571600
H 22.062100 14.395100 16.511000
H 21.037700 14.510500 16.606900
H 20.224000 14.928800 17.091300
H 20.257500 14.954500 17.057400
H 21.943000 15.018300 17.284000
H 21.467600 15.061500 17.302700
H 22.460800 15.081000 17.417100
H 19.889500 15.569200 17.804800
H 19.839000 15.538100 17.834500
H 20.053900 16.194300 18.613500
H 19.985800 16.175100 18.637400
H 20.882800 15.588700 17.919200
H 21.024000 15.285100 17.574200
H 21.876000 15.608100 18.033700
H 21.823900 15.641400 18.057000
H 20.904900 15.908200 18.347200
H 21.291200 16.135200 18.650300
H 22.284500 16.154700 18.764800
H 20.625200 16.669000 19.284700
H 21.672400 16.847900 19.589900
H 20.706400 16.662300 19.266900
H 21.704800 16.264500 18.830100
H 21.585800 16.887600 19.603100
H 25.009100 5.872460 2.137330
H 25.002300 5.901300 2.130800
H 23.717400 6.666820 0.833323
H 23.745300 6.663110 0.774464
H 24.195100 6.065350 1.527480
H 24.205300 6.078040 1.494130
H 24.834100 6.839990 1.339260
H 24.822800 6.827780 1.370160
H 25.450400 7.590210 1.212840
H 24.577200 7.552970 0.726849
H 24.604300 7.550830 0.674511
H 25.463000 7.601930 1.184380
H 25.692900 6.891090 1.849130
H 25.695900 6.865020 1.856150
H 26.321700 7.653030 1.694260
H 26.323600 7.627450 1.698840
H 27.196800 7.664700 2.184830
H 27.180500 7.704130 2.204130
H 26.091900 8.363870 1.029510
H 26.078100 8.352640 1.055520
H 27.180800 8.540750 1.594300
H 26.720800 9.125810 0.874640
H 26.705800 9.115070 0.898203
H 27.183500 8.513600 1.592360
H 25.922700 6.180240 2.513870
H 25.941400 6.139840 2.499470
H 26.742200 6.795840 2.516850
H 26.720000 6.840120 2.540720
H 23.745500 7.499730 32.981600
H 23.704100 7.515720 33.057800
H 24.206000 8.363730 32.645000
H 24.158700 8.384580 32.725800
H 25.204900 8.315400 33.386500
H 25.233100 8.312770 33.336600
H 24.959400 9.040590 32.743200
H 25.003300 9.023610 32.671800
H 25.923700 9.302550 33.054900
H 25.891700 9.307970 33.105300
H 27.457700 12.255200 3.676010
H 27.474000 12.269400 3.668330
H 27.466100 12.207000 3.665850
H 27.389300 13.287500 3.714110
H 27.400900 13.301300 3.708740
H 27.361000 13.236500 3.693470
H 27.829400 14.219400 3.615830
H 27.767500 14.182500 3.584980
H 27.836700 14.235500 3.612880
H 26.048600 16.673200 7.343330
H 25.931200 16.643200 7.475660
H 27.099500 16.064000 7.589340
H 27.489000 15.896800 7.603000
H 26.942900 16.685600 6.821810