9000
Atoms. Timestep: 0
O 4.034050 0.735788 1.142090
O 4.374010 1.485310 1.680810
O 4.958780 1.404580 0.903545
O 5.583480 1.419550 30.818300
O 4.888640 2.060490 30.566300
O 5.263440 0.880890 31.559200
O 3.738870 0.758588 33.035800
O 2.489430 1.040590 32.201000
O 3.376340 1.377150 32.394700
O 5.359490 2.216360 33.256100
O 2.420460 32.594700 0.691967
O 3.357650 32.687900 0.824737
O 5.907670 32.612600 31.312600
O 5.501080 33.253900 30.702000
O 2.333450 32.532300 32.555200
O 2.181930 33.046800 31.783800
O 7.682030 1.834260 0.725419
O 8.194710 2.429520 1.205430
O 8.196680 1.642760 31.494300
O 8.126080 1.060250 30.700700
O 6.860100 1.972080 33.045700
O 7.342440 1.789550 31.892000
O 6.090280 2.289190 32.583800
O 8.589930 2.221120 33.129800
O 8.080370 1.724040 32.487100
O 7.527170 33.374300 31.220900
O 6.312220 32.122000 32.029800
O 6.927740 32.868500 31.902400
O 7.490580 32.687200 32.620900
O 7.941080 33.383500 32.053400
N 4.084560 3.507540 0.818428
N 5.029520 3.350990 1.076750
N 5.097930 4.282290 0.828296
N 4.734460 3.854010 32.786900
N 4.096680 4.375100 33.326300
N 5.269250 4.731660 32.847100
N 5.678940 5.582140 32.690600
N 4.788540 7.598360 6.938480
N 5.397160 7.880030 7.618540
N 4.113460 8.026750 7.572420
N 3.746490 9.811600 7.712870
N 4.486670 9.951290 6.975880
N 3.713500 7.404250 8.250300
N 2.783630 6.758700 9.695470
N 5.418910 7.830060 9.400900
N 4.531150 7.015240 8.329710
N 4.803420 7.855510 8.637260
N 5.691150 7.322590 8.392990
N 3.252660 9.437740 9.348280
N 2.900250 9.613170 8.487470
N 3.980160 8.820880 9.604890
N 3.308020 10.424400 8.240780
N 4.675000 9.841330 7.892620
N 3.854790 7.566550 9.770520
N 3.726230 6.676720 10.064900
N 3.024760 7.501440 10.319500
N 3.401920 8.375420 10.258300
N 4.672380 7.899250 10.029500
N 7.349470 5.553300 0.828264
N 7.788930 5.914100 7.065050
N 6.986650 5.937880 7.579060
N 6.749190 5.826490 32.980500
N 6.411110 5.042290 32.470800
N 7.464530 6.370410 1.274950
N 7.023190 7.058010 1.922610
N 10.067900 10.324500 1.934180
N 10.244000 11.270900 2.268630
N 6.938890 7.887350 2.427980
N 7.081150 8.188290 3.349440
N 7.617900 8.306020 4.136710
N 9.874170 9.397540 3.864610
N 10.311900 9.681810 2.659680
N 6.834680 11.104100 4.001690
N 7.028880 10.178500 4.196000
N 6.679570 11.488400 3.210370
N 8.357480 11.102300 2.769260
N 10.677200 9.885190 3.569220
N 9.911720 10.388600 4.034590
N 10.233000 11.147800 3.495750
N 11.321200 7.670890 5.163270
N 6.391760 9.368320 4.574750
N 6.760250 8.429310 4.452510
N 11.111500 9.125480 5.940480
N 11.111100 8.724100 5.005520
N 9.797050 8.693780 4.852860
N 10.509900 8.381800 4.331590
N 10.294500 8.678230 5.629260
N 6.162310 10.280800 4.611910
N 7.854190 10.735000 4.754390
N 6.924460 11.001200 5.180710
N 8.716750 10.584500 5.079670
N 8.121890 9.877720 5.206200
N 9.518450 9.780050 4.659500
N 10.540500 11.319800 4.360660
N 10.156100 9.755690 5.737480
N 9.767920 10.619100 5.622490
N 9.740600 11.147000 4.872310
N 6.306940 6.981630 7.619140
N 8.311350 7.477210 7.341900
N 8.395730 6.534290 7.404310
N 6.579240 7.907600 7.450570
N 8.856110 8.401610 6.964100
N 8.983290 9.373330 7.194970
N 8.493720 10.173400 6.958860
N 8.106460 10.164900 7.850220
N 10.883000 9.899440 6.527710
N 11.102900 10.736000 7.011270
N 10.608700 10.015500 7.397260
N 7.277150 6.377220 8.403960
N 6.301580 6.380730 8.407900
N 6.603200 7.780320 8.449040
N 7.745020 9.495550 8.444870
N 6.886920 9.817860 8.129370
N 6.953850 10.463600 8.789820
N 7.467460 11.143500 8.439090
N 11.332300 10.501700 8.018120
N 10.752400 11.304100 7.959630
N 9.840540 11.285600 8.560760
N 10.158500 12.719800 1.159210
N 10.481000 11.985000 1.688210
N 9.449040 13.720700 1.921230
N 8.657330 14.999300 1.486900
N 9.348540 14.608400 2.083600
N 9.957830 13.895700 1.078480
N 8.887500 15.818000 1.877800
N 9.555360 16.314200 1.394840
N 10.415900 16.936500 1.577410
N 10.520200 16.222800 0.939290
N 7.369330 12.160500 3.319430
N 7.727170 11.819200 2.508940
N 8.380080 11.841600 3.347560
N 8.185520 12.391900 4.169430
N 9.440620 16.230100 4.081490
N 11.187800 15.209800 3.850770
N 11.223500 16.332800 3.498880
N 10.218400 15.553800 4.193050
N 10.028900 16.189700 3.313280
N 10.599300 15.450200 3.142230
N 7.717170 11.568500 5.441430
N 7.716480 11.591700 4.280360
N 9.391300 15.481100 5.603290
N 9.453920 15.285700 4.675510
N 7.620390 12.803600 7.114740
N 7.709010 12.483000 6.169620
N 9.388330 13.039700 6.544670
N 8.123340 11.634100 6.319760
N 8.570310 13.280000 6.135110
N 10.076300 11.998600 7.438710
N 10.217100 12.780200 6.941610
N 7.541830 14.036700 7.875760
N 7.732000 13.562000 6.548710
N 7.885600 14.907200 7.633090
N 9.372230 15.056900 6.819120
N 8.864010 14.990000 7.782510
N 10.145800 14.641400 7.137730
N 9.819990 15.150600 7.840220
N 10.023100 15.463300 6.306070
N 7.606110 13.159000 8.340730
N 8.283210 12.467400 8.423360
N 8.252310 11.576300 8.085280
N 9.730530 12.206600 8.300160
N 10.617600 11.784000 8.767510
N 9.114900 15.065500 30.831800
N 9.336230 15.265700 29.948800
N 9.893580 13.216300 33.161900
N 8.939730 15.022000 31.795300
N 9.651100 15.632800 31.782300
N 9.984970 15.740400 33.084400
N 10.416800 15.489700 32.306200
N 9.560280 17.250700 1.382850
N 11.729300 6.895940 5.562540
N 11.884300 8.362750 5.480120
N 12.241200 6.528370 6.261160
N 11.780400 7.317990 6.525930
N 12.571900 7.568200 6.109320
N 11.900000 10.230200 7.313500
N 12.201100 16.381700 3.671070
N 11.670100 15.594300 3.116320
N 12.266400 16.838400 4.469760
N 12.222200 17.465600 5.209410
C 2.152290 5.705940 2.127370
C 4.088640 2.951440 3.910990
C 4.511010 3.138410 3.076010
C 4.456740 4.097150 3.182890
C 1.737730 5.726410 3.956450
C 3.002540 5.695820 2.640780
C 3.389430 5.497430 3.470040
C 4.055360 5.367660 2.750710
C 4.810110 6.001710 2.970630
C 4.615410 5.899120 3.926700
C 1.535260 1.896780 5.786420
C 2.001500 1.391020 4.956590
C 1.057810 1.148830 5.227760
C 2.473810 1.645680 5.816370
C 2.920260 2.154880 5.148620
C 2.632870 0.894822 4.448700
C 2.161340 2.697980 5.521000
C 3.012390 4.151790 5.886560
C 3.866870 2.436130 4.686940
C 4.209930 2.427590 5.825240
C 2.418660 3.614780 5.330380
C 3.269630 3.193200 4.640280
C 3.837080 3.220360 5.454010
C 1.906320 4.358630 5.896570
C 2.421020 5.164180 5.653210
C 3.498900 5.191340 5.659590
C 4.713000 5.657330 5.982190
C 5.490560 5.983870 4.346960
C 5.291040 5.016090 5.526090
C 1.017540 1.174430 6.213190
C 2.906090 1.721210 7.158810
C 3.653630 2.352760 7.172060
C 2.993160 0.737726 7.225300
C 3.334080 2.354310 6.192530
C 2.850310 2.744580 7.306160
C 2.690240 3.047020 6.420660
C 1.443190 5.914170 7.414450
C 2.489860 4.266340 6.657270
C 3.000780 5.330570 6.451270
C 4.364500 4.802120 6.194430
C 4.376430 5.363500 7.071690
C 5.734920 5.890790 6.093870
C 5.142440 4.957560 6.728750
C 2.883640 0.764549 8.194640
C 2.859800 1.733170 8.264950
C 2.081970 3.815260 8.495570
C 3.408930 2.463640 8.519180
C 4.086620 2.579300 9.222830
C 2.978760 3.566700 8.174810
C 2.525680 3.307600 9.209520
C 3.552140 3.369150 8.950690
C 2.250730 5.424350 9.250070
C 1.751730 4.698340 8.921490
C 4.041130 4.610270 9.192380
C 4.113950 5.994070 7.998940
C 4.079900 5.538680 9.329870
C 3.186270 5.208820 9.589340
C 4.570950 5.161500 8.018380
C 3.031550 3.927330 9.745560
C 2.234430 4.445850 9.761380
C 2.064780 5.445240 10.167600
C 2.893510 5.929860 10.175200
C 1.188890 6.455440 3.752170
C 1.579100 7.127830 3.114610
C 2.252700 7.176420 3.788430
C 2.125710 6.577520 2.540130
C 3.130920 7.569970 3.954990
C 2.552080 6.255370 3.694590
C 5.506950 6.866640 3.748490
C 0.999069 7.682880 5.530980
C 2.211440 7.243610 5.109410
C 1.482910 6.828070 4.582160
C 3.605230 6.959050 6.022560
C 2.489780 6.062000 5.863710
C 2.489180 6.165690 4.898730
C 3.239490 6.829370 5.091060
C 5.053090 6.135930 5.175260
C 5.083310 7.087100 4.560260
C 5.829320 6.919180 5.092120
C 4.348250 6.818460 5.253440
C 5.423920 6.813860 5.984690
C 4.627040 7.559290 5.805560
C 1.852390 7.962880 5.644710
C 2.099050 8.889000 4.969660
C 2.856250 7.952750 5.690960
C 2.577250 8.266300 4.479390
C 3.745270 9.389290 5.767320
C 2.979120 9.002140 5.367720
C 4.513960 8.448160 6.042480
C 4.707010 9.413870 5.982490
C 1.756400 6.728180 7.007160
C 1.430110 6.997060 6.097750
C 2.792310 7.155470 7.247310
C 3.560630 6.099760 6.682560
C 4.380510 6.568490 6.385450
C 3.276370 8.593590 6.295400
C 4.017480 8.916200 6.882920
C 3.440510 8.826360 7.613090
C 2.286330 6.678300 7.886940
C 3.169210 6.289050 7.956660
C 2.737800 7.757930 8.000460
C 2.810740 7.291590 8.798770
C 2.885440 8.124450 9.278860
C 3.338180 8.463820 8.498480
C 2.197450 32.903500 4.018960
C 3.056280 33.226100 3.700560
C 3.196690 30.880500 4.588680
C 1.648620 33.312600 5.744560
C 1.704000 33.102500 4.839660
C 2.326070 32.245600 5.605270
C 3.663060 31.683300 4.501520
C 3.077330 31.679300 5.232280
C 2.122510 32.807700 6.360810
C 7.314270 5.752350 3.621040
C 6.173500 5.020440 6.032710
C 7.009420 6.276130 2.830250
C 7.266410 7.125490 3.023760
C 6.394600 6.979650 3.342310
C 7.948350 6.446920 2.510550
C 7.996850 6.471400 3.534610
O 1.088080 0.653277 7.084000
O 0.720624 33.055500 6.264130
O 0.611225 33.072900 7.820100
O 0.644513 31.773800 7.170360
O 1.148620 33.019700 8.639900
O 1.263170 31.911500 9.150450
O 1.026470 31.852000 8.088520
O 1.803060 31.047000 10.266800
O 1.211360 31.050500 10.999200
O 1.266120 30.160200 11.337300
O 1.572790 31.925100 10.060400
O 32.179100 1.708840 9.170600
O 32.583500 1.255510 8.459450
O 33.358100 0.868563 8.841090
O 31.237900 3.070930 8.955350
O 31.774200 2.640410 9.628610
O 31.906100 1.828700 10.052900
O 32.832000 32.474300 7.082150
O 32.686100 32.603300 6.156580
O 33.120400 32.151700 8.586290
O 33.324700 32.371100 9.494930
O 31.794900 30.367100 10.710200
O 33.165400 30.035000 11.488900
O 31.682900 29.089700 12.446200
O 32.586800 29.300400 12.671400
O 32.363500 29.603800 11.774000
O 31.136400 30.986600 12.287600
O 30.531100 30.315600 11.877300
O 31.249500 29.946600 12.452600
O 31.692900 30.806800 11.535700
O 4.952280 0.948523 7.750760
O 4.532200 33.094700 9.334010
O 5.049960 33.288600 8.542530
O 4.757210 33.060500 10.332200
O 5.501190 32.884300 10.962100
O 5.922680 31.958200 10.994700
O 9.349860 1.431880 6.057120
O 9.108690 1.032970 6.985120
O 9.679060 1.434200 7.867570
O 10.081300 1.313640 7.047290
O 10.766700 2.053380 6.963590
O 10.134300 1.928650 6.272100
O 6.456580 1.431060 9.599380
O 7.337020 2.256090 9.543270
O 6.138570 2.059630 8.952470
O 8.090550 1.626100 9.359600
O 8.900290 1.560460 8.765590
O 9.081190 0.757915 9.272940
O 10.466200 2.149980 7.899050
O 9.936330 1.112230 8.784010
O 6.136920 2.740030 9.628690
O 10.664700 2.858720 8.435840
O 9.778790 2.473750 8.810350
O 10.272300 3.143900 9.268690
O 6.584030 0.968218 10.582000
O 7.269310 1.679360 10.292400
O 6.691310 2.452770 10.373200
O 6.757550 32.863500 10.813200
O 6.179000 32.470000 10.201000
O 6.571110 33.283800 9.824190
O 2.008730 3.508150 11.482500
O 1.273590 3.197760 10.990000
O 0.653873 2.719760 10.093100
O 0.625075 3.634490 10.439400
O 2.445770 4.848140 11.483400
O 6.048080 4.423440 9.870780
O 4.697310 4.673780 10.950100
O 5.579750 4.943880 11.160000
O 5.365690 5.058230 9.909870
O 6.053140 5.376460 10.485000
O 2.752710 3.982760 11.821100
O 3.010320 5.529000 11.885800
O 3.941580 4.999030 12.416100
O 3.050960 4.775370 12.455300
O 4.765390 4.772250 11.933600
O 8.405560 4.259520 6.015780
O 9.391900 4.224140 6.198620
O 10.094800 4.057110 6.902170
O 8.692890 4.750490 7.594450
O 8.920550 5.644270 7.265450
O 8.363770 5.088660 6.448190
O 8.562970 5.983540 6.439200
O 10.035200 4.484110 7.788580
O 7.043570 4.521440 8.958450
O 7.827350 4.619360 8.245550
O 6.732660 5.083140 9.645010
O 6.908380 5.120410 8.232220
O 8.161190 5.441480 7.982440
O 10.046300 5.085160 8.492660
O 33.350900 3.392530 9.458170
O 3.256480 2.363860 13.049300
O 3.221570 0.897082 12.015600
O 3.112860 1.753540 12.365100
O 4.068580 1.046360 12.593200
O 5.856720 1.534720 13.160100
O 5.101550 2.087470 12.979400
O 3.159530 3.425180 12.613500
O 4.055860 3.041960 12.677900
O 2.670370 3.914780 13.318800
O 3.626680 4.191100 13.180100
O 4.751970 2.767290 12.035900
O 5.170780 3.050150 12.915000
O 6.008960 1.134590 14.813600
O 3.963230 2.438420 13.618400
O 3.595180 3.336960 13.607600
O 3.887660 32.997800 12.024900
O 4.197350 32.957100 12.954700
O 6.263380 1.060820 13.926400
O 6.647200 33.297000 14.864400
O 8.604140 29.411900 16.672400
O 8.068690 30.811800 15.860200
O 8.770700 30.196700 16.090300
O 7.059350 32.589100 15.742200
O 6.118880 32.946400 15.509800
O 7.335230 31.788400 16.336500
O 7.708520 33.042000 16.208800
O 7.753630 31.636800 15.462800
O 8.141220 32.282200 16.515300
O 7.838230 29.301200 17.198500
O 8.562200 29.371900 17.773700
O 1.303670 2.744980 13.280000
O 0.846062 5.249550 12.253200
O 33.268200 2.664980 11.279700
O 33.226900 3.630080 11.488300
O 29.632600 5.330710 11.109300
O 30.900600 4.934120 10.653200
O 30.367100 4.376840 10.149600
O 29.945700 4.456540 11.042500
O 32.484800 5.311890 10.733300
O 31.855800 4.674880 10.460600
O 33.320400 4.650830 10.934100
O 33.285900 5.510080 11.393200
O 33.313700 5.469020 10.376500
O 32.794500 2.349580 12.053100
O 32.958400 1.436830 11.874200
O 32.599100 0.787163 12.424200
O 32.504600 4.204910 13.176000
O 30.380600 5.681090 11.629500
O 30.635600 5.223330 12.564300
O 31.383900 5.505420 13.091900
O 29.769100 5.077840 12.125800
O 32.189400 5.006760 12.731800
O 33.163100 4.430960 12.063900
O 33.267800 5.773120 13.322700
O 33.199500 4.825450 13.109400
O 32.598200 3.711050 14.209900
O 33.173500 2.810400 13.422500
O 33.378000 3.700370 13.598200
O 32.329600 5.536760 13.683200
O 32.559500 4.710690 14.098500
O 5.700860 4.110120 14.653800
O 5.242090 2.398090 16.886400
O 6.027460 1.347880 18.807000
O 5.079600 1.385740 17.097900
O 6.007640 1.920150 17.302500
O 4.508620 2.039510 17.529400
O 5.392110 1.089510 17.958300
O 4.981210 0.988013 18.810400
O 5.930000 2.104180 18.253100
O 5.147320 2.728830 17.785400
O 3.089460 1.094490 18.851100
O 4.892050 0.667730 20.250300
O 4.539940 1.297710 19.593300
O 3.742290 33.305300 19.297500
O 4.191830 32.808600 20.087900
O 7.135890 3.482040 15.107600
O 8.484680 2.272960 15.746900
O 6.183800 3.606270 15.342100
O 7.516810 3.187320 15.980500
O 7.748970 2.662960 15.226500
O 8.221900 2.649980 16.511500
O 9.079390 2.588930 16.907700
O 7.549710 2.145890 17.583100
O 7.295110 2.142240 18.454200
O 8.929120 1.234230 17.921200
O 9.039670 2.220100 17.775400
O 8.344650 1.636680 17.165700
O 7.665820 2.012530 19.565000
O 6.787730 1.737400 19.281700
O 7.452970 2.826100 19.089500
O 3.334520 5.992910 14.437400
O 3.658740 5.447320 15.148400
O 4.488640 5.535790 14.631300
O 0.875340 5.519620 15.341800
O 4.410700 4.783990 15.225400
O 4.464620 5.816290 15.615300
O 2.286380 3.656340 18.809900
O 2.421430 4.031010 17.920500
O 1.815460 4.546320 18.519300
O 3.686410 5.863050 17.754600
O 3.224340 5.846720 18.558200
O 2.527230 5.168570 18.682900
O 5.204160 1.817450 20.498000
O 2.988610 4.234350 18.979900
O 3.956280 2.917090 20.317200
O 3.936560 4.200790 19.213600
O 4.737840 2.501800 19.971300
O 4.353180 3.513920 19.691800
O 0.787257 7.342500 14.543800
O 0.825142 6.441100 14.765700
O 2.676570 6.228150 13.773700
O 2.972540 7.819150 13.948700
O 2.722800 7.009330 14.338300
O 1.235250 8.200620 14.272700
O 2.237280 8.445390 14.212200
O 3.996310 6.668050 16.205300
O 3.546970 6.061530 16.829100
O 4.680130 6.271180 16.702400
O 5.257360 6.288610 15.953500
O 32.914800 6.033540 15.219200
O 1.050400 1.281450 18.171700
O 2.025360 1.214140 17.982400
O 1.465950 2.099840 17.775400
O 2.534110 1.889760 18.365100
O 3.466500 2.157030 18.172000
O 0.848844 3.734250 18.184000
O 1.268770 2.920360 17.424100
O 3.546110 3.141690 18.077900
O 2.251110 3.771840 20.443600
O 3.356730 3.238860 19.015700
O 2.949190 3.554200 19.782300
O 1.316060 4.764900 19.522900
O 2.149150 4.452670 19.772500
O 0.711568 3.877450 22.171700
O 0.981391 4.689780 22.585700
O 32.771600 3.932840 18.429400
O 33.160800 3.236510 17.585100
O 32.620600 4.673420 19.833900
O 32.816800 5.466240 20.336600
O 31.918000 4.850230 20.535700
O 33.401100 5.439220 19.636700
O 32.874300 3.324570 21.803700
O 32.329100 4.055580 22.051300
O 31.873100 4.683900 21.466800
O 33.119900 3.668090 24.059300
O 33.361900 4.140360 23.265700
O 33.115900 5.333430 24.128900
O 32.247700 4.928270 23.974700
O 33.130100 5.254620 23.193100
O 32.638800 4.288800 24.664000
O 5.746310 5.837000 20.222900
O 3.759830 4.359520 21.998800
O 5.864200 5.924840 21.408800
O 4.703560 4.336210 22.228200
O 4.967250 5.621520 21.065900
O 4.805690 4.758110 21.390200
O 3.056790 4.298570 22.667100
O 5.768080 6.737220 20.568700
O 6.010680 6.844720 21.532100
O 6.627380 5.761460 20.495600
O 9.551690 9.478480 16.420700
O 8.635680 9.155680 16.410000
O 9.355880 10.398300 17.627900
O 9.145310 10.019000 18.615400
O 10.059600 9.929810 17.078300
O 6.955090 7.409010 20.408800
O 7.828600 7.088380 20.616700
O 9.394430 9.565840 19.420600
O 10.509400 8.796490 20.626200
O 9.925660 8.938090 19.911100
O 10.195200 7.885030 20.582000
O 7.446390 7.351280 21.505700
O 7.263670 6.348820 20.855500
O 8.289580 6.883130 21.546900
O 8.958950 7.588900 21.710300
O 7.406330 8.228180 20.673800
O 8.330630 7.988700 20.902900
O 8.016600 8.035410 21.802400
O 9.141260 8.551270 21.727500
O 9.876480 8.019290 21.477000
O 1.960460 1.892320 22.043400
O 1.668720 2.084320 23.043300
O 2.383800 1.505610 22.869000
O 1.141540 2.730730 23.666400
O 1.080240 2.864810 24.591600
O 1.508590 1.569910 27.779100
O 2.142420 0.827340 27.933100
O 1.105700 0.678880 27.678400
O 1.968590 1.440980 28.662400
O 1.301530 2.128340 28.509200
O 1.988610 31.063100 26.061600
O 2.877310 30.733800 26.068000
O 0.668869 31.001100 26.633200
O 2.365760 32.600600 27.869400
O 1.268610 31.639800 26.215800
O 2.592880 33.215000 27.208100
O 2.674820 31.966500 27.141100
O 3.214580 31.605200 26.385700
O 32.287400 2.839580 25.905700
O 33.254300 2.537600 25.206300
O 30.999500 1.378380 27.106500
O 30.838600 2.262410 26.798800
O 32.193400 0.903249 26.918700
O 33.208100 1.248130 27.223900
O 31.598900 2.848450 26.626000
O 33.175000 2.447360 26.138400
O 32.987700 30.477900 27.204300
O 31.369000 33.290900 27.233000
O 32.859100 33.159700 27.431400
O 33.050700 30.877700 28.047800
S 4.156860 2.126710 22.292000
S 3.285120 1.693470 22.260100
S 5.897100 1.654840 21.630100
S 4.826700 2.271970 21.623900
S 5.088270 1.176630 21.365900
S 5.010900 1.597730 22.256400
S 3.385640 3.291470 22.317400
S 2.828230 2.533970 22.278000
S 3.657520 2.734490 21.613900
S 5.732680 1.500430 24.014300
S 5.743690 1.313260 22.995600
S 5.833800 2.194240 23.381200
S 3.265410 2.078930 25.792800
S 3.594320 3.889470 25.254900
S 3.306440 2.943860 25.280400
S 4.043000 2.511540 26.009500
S 4.550870 3.877910 25.449500
S 5.869760 5.762010 25.204600
S 2.356660 2.218630 27.804300
S 4.079850 1.718960 26.539800
S 4.077010 1.710910 27.492500
S 3.102280 2.356760 26.751800
S 1.576030 3.148880 27.732300
S 1.406860 4.077910 27.639200
S 4.232780 2.618370 27.212700
S 3.256890 2.463430 27.655400
S 3.241540 3.235160 26.291300
S 4.115430 3.612240 26.273400
S 5.865250 3.882470 27.785700
S 1.112600 4.968700 27.881900
S 5.614920 4.495630 27.042300
S 5.949530 5.361720 26.897000
S 3.862620 1.835870 28.709700
S 2.901290 1.812780 28.518200
S 3.533960 0.931560 28.951800
S 4.509810 0.807325 29.054800
S 4.982920 2.284040 28.759300
S 2.020680 2.417560 29.244300
S 2.056110 3.110360 28.570300
S 1.548940 4.218850 29.514900
S 3.333790 4.237360 28.230200
S 3.297150 2.519560 29.394300
S 4.201650 2.633240 28.180100
S 4.900010 3.189550 28.540700
S 5.012190 4.163530 28.964100
S 4.418880 2.579570 29.426300
S 5.546280 2.594430 29.755400
S 4.464440 3.538170 29.454000
S 5.580950 3.475650 29.342600
S 0.727794 5.843340 29.071300
S 1.212810 5.098470 28.782000
S 3.841890 4.312430 29.007800
S 2.439410 5.300360 29.309200
S 3.005550 5.060070 28.538300
S 3.407980 5.481040 29.699400
S 5.156470 4.993710 29.496500
S 6.028480 5.385530 29.402500
S 2.597540 2.470390 30.012300
S 6.021640 3.797200 30.537900
S 2.373060 4.499180 29.888800
S 0.947729 5.312800 30.024700
S 1.434990 4.536220 30.429200
S 3.670470 4.571440 29.876100
S 4.292940 5.492380 30.081100
S 5.638440 6.447800 25.863300
S 4.670700 6.457710 25.900000
S 5.142570 6.532060 26.834500
S 1.456900 6.067630 29.677100
S 4.373250 6.293580 29.552700
S 1.426060 7.989990 29.389000
S 1.475960 7.359700 30.128800
S 2.176160 6.721760 30.150300
S 2.358540 6.954750 31.061100
S 4.097840 6.426210 30.497900
S 3.258950 6.639960 30.887000
S 5.572460 7.459930 31.131400
S 2.139390 7.955330 30.840300
S 2.096570 8.322890 29.947000
S 5.137370 7.939060 30.436400
S 4.701120 8.504840 29.794300
S 5.198770 9.027100 30.427800
S 5.926850 9.362480 31.024100
S 5.805800 7.610300 33.259200
S 5.729150 7.475850 32.312400
S 4.374370 31.046800 22.717800
S 5.902640 31.211500 23.576200
S 5.263800 31.256200 22.922500
S 4.211990 32.716800 23.245400
S 3.389370 32.382200 23.479400
S 3.701580 31.708900 22.857200
S 5.797960 32.406600 23.833300
S 4.715170 32.020900 23.607400
S 5.799770 33.310200 24.031500
S 4.103960 31.815700 29.344200
S 4.087190 32.747100 29.032600
S 3.682930 31.140800 29.800300
S 4.477890 31.369700 30.259700
S 4.398390 32.352600 30.285700
S 6.791320 2.209990 20.180000
S 6.250150 1.681950 20.739900
S 7.071110 1.928350 21.384200
S 7.370300 1.265780 21.984800
S 6.666800 2.742170 20.965700
S 7.501990 1.984270 22.656400
S 6.708060 1.498210 22.796500
S 9.965200 2.408380 25.155100
S 11.133800 1.971630 25.258300
S 7.543200 4.019660 25.980300
S 9.372420 4.010490 24.901400
S 9.027100 3.647970 25.732400
S 8.721460 2.727890 25.765200
S 10.123800 3.400370 25.032900
S 10.737100 2.621910 24.674700
S 7.068830 4.317500 25.185500
S 6.470890 5.032990 25.401000
S 7.976020 3.195910 26.119100
S 7.067650 5.404090 26.977000
S 6.546480 4.773520 26.461900
S 7.299260 5.508040 27.899000
S 8.514640 4.929840 27.787100
S 8.189520 5.615590 27.127000
S 9.252680 5.539180 27.232600
S 8.387260 5.520970 26.200700
S 6.400910 4.129680 29.495200
S 6.535670 3.215660 29.622100
S 7.607720 4.459210 29.045800
S 7.707240 4.461590 28.096700
S 8.789520 5.946170 28.281700
S 9.680190 4.342560 28.652900
S 8.031820 5.378830 28.549100
S 9.007390 5.015360 28.889500
S 8.510170 4.422470 29.464600
S 10.330000 5.274970 28.792700
S 9.730550 5.183760 28.022600
S 11.316600 5.016160 28.839500
S 11.495200 4.454390 28.098500
S 9.738610 5.312320 29.532300
S 6.261530 0.956941 29.894500
S 6.065710 1.891290 30.128500
S 6.843340 3.704150 31.433200
S 6.468760 3.055040 30.889000
S 7.978100 4.030810 31.227800
S 6.252420 4.692550 30.263000
S 8.871610 4.328600 31.045500
S 10.229300 5.988280 30.035400
S 7.109660 2.887290 31.838000
S 6.976510 3.113010 32.805100
S 7.810590 3.788240 32.139800
S 8.395150 3.019740 32.099700
S 7.922830 3.056180 32.939700
S 6.172790 8.175070 1.332700
S 7.109270 8.016110 1.083640
S 7.943140 8.459420 1.715470
S 8.162510 8.314130 0.728383
S 6.973510 10.155900 25.699400
S 6.430160 6.081250 27.745000
S 7.696030 6.261100 26.361300
S 6.091840 6.407530 26.850100
S 7.939130 6.843660 27.127400
S 9.168440 6.442350 26.857400
S 9.951210 6.683850 27.375000
S 7.469910 9.000240 26.229600
S 7.227550 8.879620 27.145700
S 8.789640 8.634100 27.586000
S 9.166840 9.516420 27.113600
S 9.539660 8.147740 27.789200
S 9.755300 9.092050 27.691200
S 7.226610 10.881000 26.291100
S 7.000480 9.763640 26.554300
S 6.518060 11.241100 26.803500
S 8.739530 9.888730 27.856700
S 10.972600 9.780850 27.463000
S 6.273330 6.068370 28.668500
S 9.092760 6.775260 28.575300
S 8.066900 7.053630 28.067100
S 9.829220 6.414000 29.194700
S 10.009400 6.238320 28.225000
S 6.759980 8.355730 28.684300
S 6.617290 8.987610 29.362900
S 7.375310 8.373430 27.979700
S 8.372570 7.938820 28.109800
S 9.820150 9.293320 28.774800
S 11.124100 9.073400 28.070000
S 9.468610 10.145600 29.234000
S 8.724920 9.743080 28.807700
S 11.410800 10.347600 28.270900
S 9.746700 10.124900 28.315400
S 10.638100 10.897000 28.164100
S 10.642700 9.781360 28.889900
S 10.036500 10.906600 28.908700
S 9.655510 7.671200 30.283500
S 10.215500 6.922350 30.072800
S 9.755930 7.196630 31.146400
S 6.494450 9.188530 30.241000
S 6.101970 8.172920 30.737600
S 10.564000 8.849240 30.541700
S 10.213800 8.518750 31.417200
S 11.386900 8.423620 30.334100
S 6.379060 7.186690 31.708200
S 7.496550 7.843120 33.051500
S 9.703160 6.226750 31.627000
S 11.358900 7.265100 31.663100
S 10.209000 7.611340 31.902000
S 10.615500 6.708740 31.834200
S 6.286600 8.134390 31.659100
S 6.523980 8.056300 32.824500
S 6.246280 8.783090 33.392100
S 6.754970 11.816300 27.515300
S 7.109040 12.684500 27.581900
S 7.729640 12.375900 28.265300
S 10.136300 11.559000 29.627200
S 6.267790 31.045900 24.420000
S 6.491630 32.031300 24.450500
S 7.377530 31.880300 29.756100
S 7.325480 30.757300 31.373500
S 6.581810 30.478200 30.550500
S 7.364150 29.903300 30.821500
S 6.963170 30.976000 29.892700
S 6.712870 31.457800 31.205500
S 7.963970 30.483300 30.297700
S 8.211730 30.602100 31.181400
S 6.425460 32.850800 30.176600
S 6.554760 31.861900 30.187600
S 6.900820 32.378100 31.047500
S 7.845830 32.424400 31.359300
S 8.555600 31.831200 31.347000
S 12.079000 1.949250 25.185600
S 13.001900 3.084590 25.669500
S 12.165000 2.974640 25.209800
S 12.986100 3.090940 26.646800
S 12.291500 3.652340 26.241400
S 12.570800 4.461940 27.146300
S 12.394900 4.643490 26.227300
S 12.149200 5.087110 27.759700
S 11.886400 4.462550 29.314800
S 12.426000 4.964290 28.745100
S 11.929700 9.683580 27.685400
S 11.537700 9.442230 28.822000
S 11.786400 7.500290 30.830200
S 12.223100 7.994880 30.115200
O 1.014150 0.831611 22.723300
O 0.632310 1.319200 23.486700
O 2.013100 27.314000 20.546900
O 2.214480 26.733800 21.255700
O 1.726310 29.070500 20.175000
O 2.248780 30.112100 19.524900
O 1.345790 29.848700 19.752000
O 2.676670 30.160600 20.360000
O 1.817720 28.958400 21.301700
O 1.550320 28.068600 20.944100
O 1.830320 29.803900 20.791800
O 2.071360 31.338000 21.535900
O 2.662520 31.077900 20.743700
O 2.954410 31.081200 21.649500
O 2.007460 31.937400 22.267900
O 1.871300 33.095500 22.901700
O 2.050860 32.272000 23.344400
O 1.345430 33.389600 23.620600
O 2.641710 31.656700 22.944100
O 30.575200 0.941963 23.744200
O 31.069100 1.684190 24.013400
O 32.722700 1.971660 23.305000
O 31.973300 1.829080 24.158300
O 31.545800 2.675800 24.047900
O 32.911200 2.614810 24.179500
O 32.490800 2.920810 23.375200
O 32.032500 3.564180 24.122600
O 32.333500 3.031660 24.842000
O 29.601200 33.185800 23.817100
O 30.257700 33.384400 24.576700
O 5.570130 4.695070 22.916700
O 4.790340 5.148830 23.188200
O 5.234950 4.805130 23.950800
O 5.327180 5.947450 23.896900
O 5.709390 5.606980 22.694100
O 4.712080 5.400630 24.447300
O 5.427000 6.452500 22.353700
O 4.759900 6.296230 22.977000
O 2.101420 6.934950 25.557900
O 5.281640 7.210830 24.859900
O 5.795060 6.655240 24.336200
O 5.132190 7.967140 25.412600
O 4.244790 9.512340 25.952200
O 4.310380 8.560680 26.078600
O 4.613470 10.428400 25.855700
O 3.590520 6.908840 26.365400
O 2.677010 7.240790 26.240800
O 4.143010 7.669360 26.271300
O 5.193740 7.391880 26.123500
O 5.566460 7.515720 27.310200
O 5.159050 8.490850 27.683700
O 4.445630 8.274360 27.135100
O 4.673610 9.252220 27.247800
O 5.759740 8.151850 26.305000
O 4.084870 9.948040 26.976200
O 4.953540 10.011600 26.638200
O 4.798530 6.793100 28.455800
O 5.672600 6.855380 28.038200
O 4.871060 7.644320 27.992400
O 6.256540 8.221480 27.214700
O 1.385030 3.264640 25.830800
O 2.079610 3.030160 25.152600
O 1.044890 3.436950 26.743600
O 0.637639 4.304890 26.901900
O 33.098500 4.340430 25.971500
O 33.405200 5.244900 26.006700
O 30.279200 5.513780 27.866700
O 31.213200 5.545830 27.662600
O 32.602800 5.489330 27.342300
O 31.808400 5.014760 27.218000
O 33.402900 5.687520 26.872700
O 30.353900 6.498880 26.114100
O 29.761900 6.854220 26.767700
O 30.276700 6.187830 27.225200
O 30.148900 7.410870 27.873300
O 30.696900 7.284400 26.537300
O 28.453300 8.954430 26.673500
O 28.364500 9.516790 27.455900
O 29.317400 8.673210 27.063200
O 28.973700 8.072100 27.772000
O 30.182400 8.768310 27.716600
O 31.034600 8.320070 26.889900
O 30.461400 8.994140 26.867000
O 30.185700 7.892610 27.015500
O 29.294500 9.720950 27.552000
O 29.384600 7.606650 28.483900
O 30.024400 9.662240 28.110900
O 31.192000 9.243050 29.099300
O 30.961100 8.767240 28.263300
O 30.515500 9.880940 28.903400
O 5.980710 0.769738 27.719700
O 5.999170 1.731400 27.570100
O 5.224900 31.314800 28.409500
O 5.730370 30.648800 28.893400
O 5.967660 32.317600 28.171100
O 5.277050 32.654900 28.724100
O 5.394430 31.776900 29.207100
O 8.116850 1.094110 27.846800
O 9.257440 3.672330 27.908900
O 7.861400 1.758220 29.653700
O 6.701970 1.964410 28.169400
O 7.679990 1.942740 28.115600
O 9.306000 1.734070 29.186600
O 8.495480 1.321070 28.929800
O 8.451040 2.321690 29.152700
O 8.405710 3.207620 28.644900
O 9.203460 2.671010 28.566600
O 8.669310 4.177990 28.424000
O 10.001600 3.224500 28.377000
O 7.324840 0.994667 29.936100
O 8.901720 1.361750 29.959600
O 6.387620 27.749600 30.309200
O 6.553240 32.865400 27.567800
O 6.352330 30.155700 29.463000
O 7.236120 30.064400 29.752100
O 8.562080 33.327800 29.722300
O 8.592720 33.272900 28.496600
O 6.609050 29.476400 30.154500
O 6.466720 28.621900 29.771000
O 7.714340 32.911200 29.996300
O 5.770620 0.943968 26.663500
O 8.830310 1.007540 22.197600