ITEM: TIMESTEP
0
ITEM: NUMBER OF ATOMS
900
ITEM: BOX BOUNDS pp pp pp
5.9153331474142945e-01 3.3408466685257878e+01
5.9153331474142945e-01 3.3408466685257878e+01
5.9153331474142945e-01 3.3408466685257878e+01
ITEM: ATOMS id mol type x y z 
12088 0 3 3.11463 4.87937 1.15236 
26081 0 3 1.78032 3.25544 3.06818 
18104 0 3 3.38558 4.9569 3.67689 
19973 0 3 4.60653 4.74311 4.02701 
3794 0 3 2.41059 2.14993 4.7993 
6819 0 3 2.55983 4.06211 5.66608 
11756 0 3 3.9127 3.84319 8.6305 
25062 0 3 5.64824 4.26151 9.68743 
3607 0 3 3.74473 4.17677 10.4302 
8493 0 3 2.1658 4.90084 10.4231 
141 0 3 3.65206 1.59185 11.7887 
11267 0 3 2.27519 4.99258 11.6616 
1107 0 3 5.0861 1.91817 13.8456 
24555 0 3 1.97412 3.4402 15.0989 
6605 0 3 2.27212 3.67907 16.3251 
20097 0 3 4.07653 3.3096 16.2546 
11533 0 3 1.70557 0.992316 20.4886 
11288 0 3 4.09587 2.90242 19.3076 
23988 0 3 5.30141 3.85997 20.1331 
814 0 3 3.12937 4.82441 20.0395 
2 0 3 3.13283 5.31086 20.9117 
3812 0 3 1.95833 3.84656 23.9739 
16676 0 3 1.15573 3.1112 23.4191 
1295 0 3 3.22999 2.52362 25.645 
20930 0 3 4.9942 0.660783 26.184 
11227 0 3 0.678763 3.29895 27.3573 
13539 0 3 2.57292 0.874607 29.7256 
7984 0 3 2.04373 3.32068 28.7519 
10856 0 3 1.93596 1.99133 30.5916 
12701 0 3 1.90029 3.85221 30.9132 
9966 0 3 3.39767 1.31102 33.4072 
50 0 3 1.67807 3.50169 32.2532 
20585 0 3 3.0147 4.40915 32.6338 
834 0 3 5.97677 6.62272 1.27419 
16119 0 3 5.32917 8.70584 1.5121 
3686 0 3 3.47904 8.8682 3.16989 
13244 0 3 2.01553 8.62037 5.59404 
202 0 3 0.643748 8.5075 6.45698 
21652 0 3 1.55168 10.6873 8.58515 
23142 0 3 1.02028 10.5365 10.972 
21576 0 3 5.56718 10.1931 14.4391 
22024 0 3 5.83034 6.49637 18.8299 
7627 0 3 4.30168 10.8723 18.8254 
21193 0 3 2.08783 9.20068 21.7491 
11262 0 3 2.57645 9.34928 20.7609 
894 0 3 3.14621 10.6978 21.1166 
12935 0 3 1.35681 10.9722 22.527 
20456 0 3 2.11397 8.89369 25.9238 
15307 0 3 5.05789 10.1473 25.7543 
19448 0 3 4.49255 10.4733 26.8615 
13272 0 3 5.81083 9.73499 27.8896 
26985 0 3 1.61983 7.51188 29.0393 
13478 0 3 0.699548 6.7481 30.854 
23389 0 3 1.15206 6.95786 32.6833 
19219 0 3 2.94153 8.4411 31.7654 
5787 0 3 4.6497 9.34242 32.3448 
24215 0 3 1.12054 15.7295 0.747266 
16069 0 3 5.56136 13.6236 5.26072 
21935 0 3 2.37709 11.8792 6.2103 
18305 0 3 3.56452 13.0886 7.64196 
19482 0 3 1.85366 12.2311 8.38744 
26953 0 3 2.57093 14.4404 9.93988 
10556 0 3 3.30049 13.6588 13.617 
23253 0 3 3.09222 14.6801 14.7053 
21967 0 3 5.18818 14.6562 14.451 
5234 0 3 2.00945 15.5735 16.7764 
23902 0 3 3.4346 15.9329 18.5076 
16769 0 3 5.55056 14.3703 19.4258 
8012 0 3 1.6749 12.2775 22.7211 
20134 0 3 2.45629 11.8701 23.6922 
8741 0 3 3.79594 13.7084 23.2272 
672 0 3 5.92804 13.617 23.9547 
25604 0 3 5.71022 13.9789 22.7748 
11117 0 3 3.52504 16.7469 23.145 
19148 0 3 5.26262 13.3983 24.9291 
17211 0 3 4.86478 12.6536 26.5372 
9391 0 3 5.01302 12.285 28.6193 
20309 0 3 0.684112 13.9863 28.9048 
12677 0 3 3.33057 14.2658 30.3212 
4373 0 3 5.77679 16.002 31.6113 
22992 0 3 1.38773 17.1793 1.32594 
7441 0 3 3.50104 18.5188 1.66061 
25283 0 3 3.61224 19.3434 5.40457 
25665 0 3 0.745254 22.2519 4.82524 
20845 0 3 3.65675 17.0122 9.05523 
14931 0 3 3.58072 19.5488 11.1124 
23370 0 3 5.65095 19.2834 10.185 
20938 0 3 1.83158 17.1658 13.2922 
8229 0 3 1.2317 17.8683 15.1648 
7720 0 3 1.95688 19.8615 15.9261 
13235 0 3 2.81608 19.0813 16.0291 
26447 0 3 4.7204 20.5378 16.9189 
20389 0 3 2.17959 19.7913 18.0142 
7486 0 3 4.2527 19.8998 17.5613 
22293 0 3 2.79716 19.5881 19.4599 
21196 0 3 5.88993 19.4286 19.7651 
17525 0 3 4.61938 22.3483 19.8884 
211 0 3 2.26694 19.7313 26.0125 
13534 0 3 3.93481 19.4012 24.3131 
1723 0 3 1.58926 17.1607 27.8243 
18573 0 3 5.75793 22.2376 27.3732 
11584 0 3 1.55826 21.5327 29.5797 
14698 0 3 2.16912 18.5248 33.2212 
11335 0 3 0.912116 22.1278 32.2929 
15818 0 3 1.27578 23.3293 3.22924 
8339 0 3 3.38014 24.157 5.00244 
6647 0 3 5.63601 22.52 5.34431 
12319 0 3 0.94245 25.3923 5.82479 
21065 0 3 1.31221 24.1954 7.08602 
2999 0 3 3.75533 25.5413 6.44949 
20240 0 3 4.45885 27.5887 7.49358 
24983 0 3 4.88239 23.1988 8.46489 
3593 0 3 4.74184 27.821 9.98039 
10143 0 3 4.90257 25.4903 15.9094 
16157 0 3 1.00178 22.7679 17.216 
9614 0 3 2.22115 24.1571 17.8259 
1982 0 3 3.7812 26.0757 18.1542 
21294 0 3 5.47207 25.2583 18.4627 
4491 0 3 3.73725 23.4886 18.8951 
17679 0 3 4.72709 25.487 20.4622 
6656 0 3 4.76909 27.5355 19.6461 
14402 0 3 0.866466 25.9662 22.5282 
21765 0 3 4.76255 22.607 26.9502 
23521 0 3 1.23484 24.7054 27.3546 
4215 0 3 1.26606 25.5408 26.5404 
12367 0 3 2.09926 27.33 27.8682 
7803 0 3 3.49505 26.6352 27.0376 
26675 0 3 4.95893 27.6635 26.5402 
3402 0 3 1.33542 23.0732 31.8723 
26714 0 3 2.9325 22.9808 33.1093 
11549 0 3 4.30756 28.4498 6.04817 
4334 0 3 0.886651 33.4004 4.55838 
7866 0 3 2.54957 31.0905 9.52367 
14475 0 3 5.29603 31.7829 9.46808 
20210 0 3 4.8608 28.8779 10.2367 
10091 0 3 5.36092 31.6475 12.7963 
25073 0 3 5.67599 29.6094 14.9504 
3747 0 3 0.976404 31.0029 13.8604 
1502 0 3 3.91238 28.7538 16.1792 
21584 0 3 1.93281 28.804 17.5144 
10923 0 3 5.1873 32.6093 17.7404 
17808 0 3 2.43937 28.7865 20.9363 
14039 0 3 1.26079 30.2978 21.4513 
18042 0 3 3.09977 29.8412 20.755 
19766 0 3 1.86415 29.432 23.5008 
14256 0 3 5.3557 28.1034 23.7006 
12435 0 3 1.93938 33.064 22.5642 
3820 0 3 5.86938 31.7283 24.0306 
2598 0 3 3.02791 28.9818 25.8444 
14343 0 3 4.51438 30.3247 24.9194 
2967 0 3 4.04822 32.7369 27.8341 
7787 0 3 1.1036 32.9791 27.9539 
7117 0 3 0.857284 32.8478 31.5443 
21934 0 3 0.629907 28.033 33.0324 
1118 0 3 7.30524 4.73119 1.53055 
15686 0 3 10.4107 4.03918 3.83344 
14964 0 3 8.74133 4.68091 3.51378 
19730 0 3 10.5766 2.52092 5.67323 
24350 0 3 8.36448 4.8107 6.09146 
20570 0 3 9.7088 3.35608 8.09835 
22325 0 3 10.7796 4.25408 7.92405 
6419 0 3 10.8225 2.07875 12.0565 
20602 0 3 11.1565 2.84929 12.7293 
21601 0 3 8.3 1.05097 14.7978 
26338 0 3 8.56982 3.39312 14.7707 
10673 0 3 6.66057 5.38407 13.5249 
26581 0 3 6.8452 1.95023 18.5747 
1200 0 3 8.1446 2.89499 18.8098 
16118 0 3 10.5593 4.25546 22.3194 
21830 0 3 8.63461 4.21603 22.9991 
26329 0 3 8.9664 4.21348 25.1384 
14349 0 3 10.0111 3.89088 25.7849 
5151 0 3 9.6231 4.8774 25.807 
710 0 3 8.15376 1.61204 26.9484 
23734 0 3 9.38384 0.820803 27.8617 
16451 0 3 11.2944 3.95638 28.5766 
10897 0 3 10.7568 0.660643 30.1402 
21904 0 3 6.14158 8.93754 2.23942 
14320 0 3 7.25715 7.56213 2.76279 
15010 0 3 6.27018 10.9868 3.4111 
19193 0 3 11.1896 10.7734 8.49581 
14324 0 3 6.47928 8.57193 15.1842 
19084 0 3 10.9079 10.6493 16.7695 
20345 0 3 7.55034 7.72265 19.907 
10424 0 3 8.89085 9.38015 20.1873 
12710 0 3 11.3571 8.81309 19.1649 
20031 0 3 8.08532 9.58405 20.9144 
11687 0 3 11.4752 8.66862 21.5692 
11588 0 3 9.82478 7.5496 25.2334 
22469 0 3 7.21529 9.80963 25.0084 
15904 0 3 8.95599 7.16957 28.8171 
21440 0 3 10.5618 6.50583 31.7702 
3767 0 3 9.89208 14.8167 1.62796 
22816 0 3 6.84948 13.9241 3.71081 
23166 0 3 9.06513 14.1525 2.51887 
9582 0 3 8.98094 14.0233 4.17374 
4665 0 3 9.95015 11.686 4.91554 
11359 0 3 8.94482 16.7643 5.57241 
22827 0 3 8.87818 15.1115 7.82217 
17590 0 3 7.17556 16.9854 7.64308 
1824 0 3 7.56441 12.5091 8.79347 
5683 0 3 6.77887 13.6885 8.88068 
23623 0 3 7.36518 16.78 9.30509 
2848 0 3 10.8094 15.2114 9.2255 
16697 0 3 7.77966 12.0081 9.85075 
1972 0 3 11.0363 11.7202 10.8339 
5196 0 3 7.57762 14.7075 9.97454 
7971 0 3 8.57673 14.1889 11.3486 
15156 0 3 10.1552 14.7415 10.7971 
2547 0 3 10.816 16.7816 12.9463 
17698 0 3 11.0808 15.4004 13.9012 
17324 0 3 11.2039 11.7152 15.9279 
4370 0 3 10.6722 14.853 17.9327 
21388 0 3 6.35446 15.8653 18.2768 
21022 0 3 6.50715 12.7517 18.8499 
2847 0 3 11.3354 12.2384 19.0911 
3814 0 3 9.08717 16.2221 19.5988 
11471 0 3 7.36409 12.8295 21.678 
22338 0 3 6.6294 13.2798 21.0148 
20947 0 3 7.757 12.0713 22.313 
7973 0 3 9.00964 12.12 20.8746 
5845 0 3 7.98535 14.5148 22.0147 
12594 0 3 7.2184 15.9542 20.9582 
5105 0 3 6.65951 12.805 24.1842 
14409 0 3 8.23256 16.0688 22.9586 
8808 0 3 10.9153 14.6851 25.0935 
10137 0 3 9.61207 15.3709 25.8429 
13230 0 3 11.2152 16.5379 25.4642 
14206 0 3 6.13349 14.0394 27.8222 
8166 0 3 10.6906 15.289 27.495 
19558 0 3 8.41853 17.8127 1.92413 
18379 0 3 10.4547 17.7553 1.19543 
18377 0 3 8.76778 20.7857 1.92909 
13377 0 3 7.09608 18.2627 4.13977 
25977 0 3 11.3252 17.2426 2.6778 
1516 0 3 8.1509 21.775 6.06423 
18313 0 3 6.70401 19.9997 8.82093 
15317 0 3 9.48399 21.0541 9.57663 
26840 0 3 9.55954 18.6068 12.5833 
20027 0 3 7.90658 21.2541 12.4818 
20956 0 3 7.21798 20.0564 13.9856 
18248 0 3 8.30612 21.5157 14.8761 
5048 0 3 10.1121 20.2955 15.204 
24904 0 3 10.5611 17.9028 17.2061 
8333 0 3 6.85068 18.9544 17.8168 
26267 0 3 9.13772 20.3862 17.6692 
10103 0 3 9.58221 19.4508 18.7819 
16847 0 3 10.1125 20.1237 18.1268 
24545 0 3 9.91469 18.3294 19.945 
11028 0 3 9.70694 17.4575 24.2446 
8474 0 3 7.99334 17.3616 22.776 
3154 0 3 7.38722 18.9765 23.0492 
12723 0 3 9.11176 19.1066 22.6355 
4489 0 3 7.81363 17.4382 24.632 
302 0 3 6.83282 21.2829 24.6848 
10112 0 3 10.6621 22.313 25.6941 
7523 0 3 11.1251 21.7831 24.7476 
11902 0 3 9.85089 17.1216 27.2855 
15640 0 3 6.50984 19.1091 26.2026 
8869 0 3 9.17383 22.1632 27.8395 
19786 0 3 8.81064 19.0308 30.0192 
19071 0 3 10.9427 19.7564 29.8327 
11713 0 3 11.1325 20.4985 31.0185 
19165 0 3 6.19788 21.5399 30.7137 
5469 0 3 6.3925 21.6613 32.9942 
22454 0 3 9.69922 20.7467 31.968 
9053 0 3 11.3055 23.8638 2.49358 
18424 0 3 7.0309 24.6328 4.7033 
8670 0 3 7.77271 24.3727 6.81837 
291 0 3 8.11722 24.8666 8.99165 
9929 0 3 10.6106 24.9778 8.13928 
26213 0 3 8.63925 26.654 8.21019 
17572 0 3 9.1335 24.5765 11.4498 
14925 0 3 6.42072 23.0543 12.7356 
8367 0 3 9.97333 22.9909 13.2707 
18841 0 3 7.59702 25.1923 13.31 
506 0 3 7.1491 26.94 12.6543 
15647 0 3 8.31521 27.3728 12.7755 
20998 0 3 11.1658 25.6079 14.8617 
17362 0 3 6.92195 27.0583 15.9066 
2520 0 3 9.78985 22.8625 18.633 
15759 0 3 7.71413 26.476 18.6562 
13461 0 3 6.681 25.9878 19.3137 
16719 0 3 8.9061 24.5644 20.2351 
12219 0 3 10.9639 26.4795 20.4327 
1049 0 3 7.45946 24.7229 20.6513 
9047 0 3 6.56819 23.3513 23.9911 
19037 0 3 8.11116 24.5908 25.5404 
13586 0 3 8.30052 27.132 25.8845 
22331 0 3 11.1489 27.1267 24.5458 
21649 0 3 6.22389 24.3714 31.0306 
16008 0 3 9.60373 24.4789 30.2841 
19873 0 3 9.43746 30.3254 9.31046 
16422 0 3 11.3867 29.802 8.12246 
2123 0 3 8.20706 32.4079 8.99465 
21121 0 3 9.12775 29.0358 9.84886 
1245 0 3 7.02416 31.2523 10.0854 
11815 0 3 8.05407 33.2178 10.7166 
1728 0 3 7.69775 29.7078 12.5189 
4248 0 3 9.12336 31.1083 12.5074 
4181 0 3 6.18882 31.2142 17.3462 
7974 0 3 6.33747 33.291 18.4301 
19327 0 3 7.54344 28.7849 21.7693 
6779 0 3 7.70779 27.9546 21.1812 
8631 0 3 10.0747 29.1241 21.8013 
20231 0 3 6.74954 29.2926 23.6359 
25297 0 3 7.53536 30.8405 22.9994 
18093 0 3 6.72414 29.4752 25.6632 
7959 0 3 10.634 29.4166 25.511 
19492 0 3 7.58442 31.0361 27.2468 
18454 0 3 9.38581 32.6558 26.2027 
861 0 3 15.0758 2.04569 6.00474 
546 0 3 13.1394 3.59654 5.18724 
146 0 3 15.7635 3.50118 5.38815 
14208 0 3 16.0325 1.8306 6.42703 
19450 0 3 12.046 6.00279 6.5103 
22788 0 3 15.9812 3.17221 9.2124 
25521 0 3 11.621 1.24611 10.3639 
10794 0 3 14.142 3.86131 10.25 
9593 0 3 13.6742 4.58701 9.73764 
26247 0 3 16.1982 4.49026 10.3659 
9284 0 3 12.8384 5.11708 14.9067 
7810 0 3 14.3109 4.60052 13.5265 
13164 0 3 13.8613 3.50252 18.0655 
23334 0 3 11.5562 3.21079 18.9745 
24286 0 3 12.099 2.95433 19.995 
5748 0 3 15.4993 3.43088 19.5965 
1606 0 3 16.1278 2.37596 21.4961 
18019 0 3 12.1038 1.15951 24.5883 
3759 0 3 16.697 3.5461 25.9848 
14126 0 3 16.6139 1.845 27.2015 
8445 0 3 12.7606 3.29375 26.2188 
9039 0 3 16.0974 1.84856 29.5061 
8102 0 3 12.7301 3.20771 31.7843 
24150 0 3 13.7308 2.51282 33.2583 
21816 0 3 15.5964 3.93489 33.142 
25298 0 3 16.2939 6.29976 4.91201 
18978 0 3 15.6322 8.98957 4.68873 
11826 0 3 16.1231 6.15894 6.13845 
22598 0 3 13.6173 8.52539 6.90788 
20674 0 3 14.0023 11.0722 7.81661 
14124 0 3 16.1747 10.2977 6.77646 
18576 0 3 13.9745 7.23195 7.96585 
26938 0 3 14.465 7.84671 8.65585 
839 0 3 14.0272 8.35784 9.46677 
6392 0 3 12.532 9.99705 8.99953 
24649 0 3 16.2118 11.2471 8.81359 
23135 0 3 15.8556 8.88838 10.0934 
22400 0 3 14.0098 11.2236 11.0577 
20258 0 3 12.6727 7.86771 11.7804 
7581 0 3 16.1223 9.33952 12.5518 
7347 0 3 15.9606 10.5764 12.5473 
18441 0 3 16.412 8.31849 13.5542 
23348 0 3 12.8372 7.085 18.3181 
5337 0 3 16.8459 9.20447 18.6065 
17975 0 3 16.4351 11.2211 18.7374 
18577 0 3 15.5152 10.2682 21.2193 
26368 0 3 15.5924 10.1952 25.1456 
13386 0 3 11.8111 8.9597 26.6085 
20041 0 3 15.2423 7.96161 29.3006 
9714 0 3 12.3073 9.43724 29.9968 
3920 0 3 16.546 8.93291 31.1125 
2662 0 3 16.8837 9.97176 30.8386 
21938 0 3 14.7272 12.9471 0.783736 
9808 0 3 12.6227 12.0625 4.14535 
17924 0 3 13.8324 13.1059 2.79615 
23471 0 3 13.626 12.2875 3.70842 
18509 0 3 15.5311 13.2782 4.03594 
3898 0 3 15.742 15.4601 3.42463 
17431 0 3 16.8584 12.1756 6.08432 
26743 0 3 16.1338 13.3957 7.13879 
18031 0 3 13.8136 12.4615 8.57466 
25622 0 3 14.6129 16.1332 10.9403 
5452 0 3 14.931 12.4816 13.1791 
20187 0 3 16.7546 12.3772 12.3188 
16822 0 3 14.3694 14.2723 11.9177 
11356 0 3 14.4317 11.6342 14.827 
9596 0 3 11.8889 14.7848 14.4503 
16174 0 3 15.5355 13.6189 14.5839 
21306 0 3 11.7936 15.2113 16.5222 
25379 0 3 12.7382 13.341 18.2084 
24803 0 3 12.4412 14.5565 17.1788 
11946 0 3 12.3677 15.7535 17.4305 
2517 0 3 12.7624 12.403 25.3281 
7229 0 3 12.7445 14.1345 26.491 
21453 0 3 11.7323 16.0268 26.8552 
16672 0 3 13.7959 14.2975 28.0063 
20889 0 3 16.6247 14.1213 32.7662 
4709 0 3 14.6635 15.3003 33.0196 
3930 0 3 12.5614 20.8055 2.10942 
19032 0 3 11.7134 19.9773 4.15677 
3799 0 3 14.4971 19.2787 3.2799 
8646 0 3 15.9111 22.1559 3.25642 
15274 0 3 13.0549 18.7611 5.96982 
101 0 3 13.9095 17.9443 4.51634 
12118 0 3 14.1145 17.8634 7.56939 
9633 0 3 16.2601 18.3907 10.319 
1514 0 3 11.6299 22.2094 10.7414 
20555 0 3 14.3253 18.9546 12.3002 
13590 0 3 14.0686 20.6501 11.6719 
8486 0 3 13.5628 17.8176 15.1607 
2838 0 3 11.6755 21.3985 13.9144 
14215 0 3 13.4157 18.4398 20.8976 
16427 0 3 15.288 20.0556 21.7793 
12634 0 3 15.9001 19.2178 21.8666 
26335 0 3 12.2756 17.8164 23.2427 
8624 0 3 14.9745 17.2027 27.1441 
602 0 3 16.354 17.3785 27.7408 
1067 0 3 13.641 21.4312 26.6172 
5123 0 3 13.0219 18.5603 28.5748 
14074 0 3 12.4861 21.0586 28.2905 
14834 0 3 14.8094 21.6924 29.2714 
9729 0 3 13.3666 18.1859 30.1807 
25048 0 3 16.0495 18.2678 30.6218 
18427 0 3 14.3585 17.0596 32.1968 
17330 0 3 16.0151 20.6368 32.7164 
13521 0 3 14.318 21.9894 33.0713 
2670 0 3 13.6148 21.1541 33.1232 
3771 0 3 12.6655 26.0276 5.55309 
2212 0 3 14.4768 23.2409 6.81149 
11757 0 3 16.8321 26.2741 8.39841 
13281 0 3 15.2286 22.5067 10.0395 
20499 0 3 12.8789 26.4253 13.9919 
12784 0 3 16.2474 27.9001 14.392 
17282 0 3 13.5207 24.533 18.1442 
7808 0 3 14.3214 22.6242 19.5044 
11547 0 3 15.212 25.9227 22.6516 
18430 0 3 15.393 25.8528 23.9488 
17553 0 3 16.6653 27.1757 23.0833 
24610 0 3 13.7638 24.3415 25.3538 
17368 0 3 14.6248 26.8194 25.9407 
4089 0 3 15.6486 23.6174 26.4253 
17419 0 3 15.6448 26.9516 27.9088 
16935 0 3 13.6643 24.8319 29.3498 
9413 0 3 14.3297 27.5493 31.3486 
9238 0 3 16.1035 27.0578 32.6601 
1882 0 3 13.0567 29.4831 4.68711 
26608 0 3 15.8359 30.7244 7.11848 
24053 0 3 12.8918 28.4945 9.66114 
12423 0 3 12.8251 29.5353 9.61985 
17742 0 3 13.1403 30.6631 8.08819 
20192 0 3 13.0941 32.4132 8.69318 
3773 0 3 14.1176 31.5299 11.0205 
25360 0 3 13.6998 29.7021 12.46 
22968 0 3 15.2658 29.0156 12.8887 
8169 0 3 15.6507 31.0839 12.0459 
5940 0 3 13.5768 31.2986 14.1543 
21784 0 3 14.5992 28.5498 16.0892 
11524 0 3 14.4488 30.7207 20.2889 
4730 0 3 15.4249 33.126 19.3636 
23184 0 3 13.7239 33.1528 24.1334 
6514 0 3 13.6523 28.5526 25.5274 
5900 0 3 13.7765 32.3913 24.9009 
19322 0 3 15.5274 29.2326 27.3669 
21212 0 3 13.2727 29.974 26.8326 
7960 0 3 15.9572 30.1806 27.5204 
14958 0 3 15.7811 32.2931 26.426 
18656 0 3 12.5439 28.4779 29.363 
18937 0 3 15.7814 28.8419 28.3796 
23412 0 3 15.0437 30.0503 27.9802 
6115 0 3 12.3327 33.0913 29.3574 
5781 0 3 14.253 31.2664 30.3367 
14205 0 3 11.6653 32.7568 31.9817 
8719 0 3 17.3369 3.85248 1.39249 
13787 0 3 19.2596 0.941947 2.78996 
7874 0 3 21.3736 1.21601 3.36886 
23825 0 3 21.0661 4.2559 3.44678 
21042 0 3 22.3443 3.18769 4.56099 
11362 0 3 18.9108 5.14892 5.78785 
15534 0 3 18.8486 1.04508 7.65979 
1580 0 3 20.0649 1.33489 9.31223 
21766 0 3 21.4234 2.33517 8.7903 
8967 0 3 21.8267 1.55342 10.6625 
10638 0 3 21.7156 2.05084 9.71401 
21677 0 3 17.8553 3.27429 10.5859 
11695 0 3 20.7443 2.08525 12.16 
6110 0 3 19.4035 5.6877 16.4833 
20224 0 3 18.7599 2.23743 19.3739 
9032 0 3 21.8248 3.5274 19.8648 
15436 0 3 17.3901 2.33265 21.1205 
4605 0 3 19.7462 4.28018 21.1609 
6414 0 3 21.4826 4.5477 22.1983 
14624 0 3 21.0208 1.27711 24.6029 
4875 0 3 21.6775 5.88394 25.3327 
15805 0 3 19.5536 2.33527 26.3439 
7714 0 3 17.8277 3.54561 27.5413 
23384 0 3 18.5151 2.67567 31.2849 
19092 0 3 19.3453 4.19947 30.6636 
18318 0 3 19.152 2.79187 32.1784 
2322 0 3 20.6616 11.0715 2.03722 
22380 0 3 17.0046 10.7934 3.70566 
23216 0 3 20.9072 9.94442 2.66116 
4306 0 3 20.3095 7.84732 4.65301 
26373 0 3 17.0602 6.7096 7.61181 
16836 0 3 20.2792 6.65842 6.71035 
15372 0 3 20.0434 11.4029 6.19141 
2704 0 3 22.3812 7.84195 8.60724 
10104 0 3 21.7613 10.0135 8.2719 
1038 0 3 22.1238 8.00216 10.4366 
20913 0 3 18.766 7.59175 13.3979 
1463 0 3 22.1185 9.27531 14.7032 
10214 0 3 17.845 8.0174 16.6042 
26880 0 3 19.8712 7.04185 18.4204 
23362 0 3 22.1417 6.12373 19.1701 
20315 0 3 22.0037 8.70105 20.9379 
25573 0 3 21.646 9.23958 27.8308 
18957 0 3 18.1163 12.4391 0.984708 
11215 0 3 21.2333 13.3232 1.57964 
12957 0 3 18.2481 14.6332 0.665649 
968 0 3 19.5327 14.2207 2.12404 
12993 0 3 17.4065 12.786 2.66014 
19135 0 3 21.6748 13.0591 3.7935 
1190 0 3 21.5681 16.2829 3.17722 
8517 0 3 19.1652 16.1494 4.24239 
8603 0 3 21.9243 11.8747 7.05382 
5790 0 3 20.9985 12.8069 8.50148 
19404 0 3 22.4618 14.2157 8.33981 
9717 0 3 17.2843 14.1613 11.4442 
20776 0 3 19.1163 13.0044 13.5951 
7563 0 3 21.4787 13.5096 13.3827 
3583 0 3 20.9716 12.5377 16.1685 
14235 0 3 17.3813 13.1993 19.7529 
6293 0 3 18.8849 12.5125 19.3235 
22390 0 3 20.9045 12.4312 19.9907 
8712 0 3 18.1907 15.0988 22.411 
19173 0 3 20.2689 13.7133 21.8784 
2663 0 3 22.1467 15.6259 22.1494 
11099 0 3 22.2202 12.2282 24.2254 
26089 0 3 20.9873 16.094 23.2624 
10094 0 3 18.3555 14.6165 25.8974 
9597 0 3 19.2754 14.5714 25.1449 
17420 0 3 20.3905 16.2064 24.3516 
5009 0 3 20.6946 14.6255 26.4176 
2202 0 3 20.6467 15.1399 27.4111 
2661 0 3 22.0601 16.7212 27.0579 
25586 0 3 17.6287 11.6379 29.5388 
6723 0 3 22.3413 15.1544 30.7543 
2528 0 3 17.4512 16.7424 31.1559 
1134 0 3 21.568 15.8907 30.2416 
8011 0 3 19.573 12.0996 31.8985 
6166 0 3 17.4927 15.5707 32.0858 
20516 0 3 17.9845 16.7891 32.1848 
7289 0 3 22.1205 19.2622 0.750218 
17556 0 3 18.9987 18.0625 3.49376 
8000 0 3 21.2998 18.5283 7.31434 
17446 0 3 21.0957 19.9641 6.97071 
5300 0 3 17.3704 20.1696 11.4484 
25328 0 3 20.1375 21.265 14.5479 
8556 0 3 21.1857 19.2795 15.5939 
15373 0 3 19.4005 21.1419 19.35 
14047 0 3 19.4815 22.014 20.1139 
1213 0 3 20.8175 19.2169 23.1515 
26393 0 3 20.7603 21.127 24.1859 
12256 0 3 20.8596 19.3534 25.3511 
24804 0 3 19.3464 19.2793 29.7247 
24966 0 3 18.9766 22.3217 28.7904 
3313 0 3 17.7828 20.0751 30.6636 
20569 0 3 18.8482 18.2657 32.9355 
3014 0 3 17.1574 24.4536 1.09771 
26383 0 3 17.115 25.7656 6.17695 
24206 0 3 17.2817 25.9814 9.65728 
8364 0 3 17.3213 22.5912 10.1763 
7647 0 3 20.2451 26.3957 10.6556 
7515 0 3 20.115 24.7333 12.4864 
9260 0 3 19.6137 27.2897 15.139 
11933 0 3 22.351 23.1969 16.6183 
20477 0 3 20.2006 24.8776 16.7437 
642 0 3 18.3 24.8876 17.1097 
14066 0 3 21.7275 25.4622 19.3041 
5779 0 3 18.7345 23.8374 22.7475 
2545 0 3 17.1213 22.9154 24.6742 
10799 0 3 21.2735 24.0791 24.6268 
26970 0 3 18.3514 23.0623 28.1029 
10520 0 3 19.5497 23.998 29.8072 
13101 0 3 19.6531 26.2186 31.0466 
10868 0 3 17.3139 26.0628 31.766 
5152 0 3 18.6768 24.3662 32.0229 
25763 0 3 21.3147 28.9346 1.24403 
16462 0 3 17.3468 32.4786 4.73145 
17254 0 3 18.3149 32.9057 10.9755 
15183 0 3 17.4017 28.4853 11.7327 
1594 0 3 20.2181 32.5081 12.6459 
26472 0 3 19.3482 29.4978 14.4466 
15794 0 3 18.6924 30.6142 15.8511 
20911 0 3 21.6942 31.0896 16.5175 
8985 0 3 19.1609 32.0724 19.4724 
11446 0 3 22.3877 29.5736 22.7417 
26377 0 3 18.1426 32.1785 23.6308 
24467 0 3 19.0696 33.1734 23.6625 
6367 0 3 17.484 32.0251 24.9934 
20054 0 3 19.7433 33.1946 28.6982 
5170 0 3 18.4979 31.5597 30.632 
23150 0 3 20.7142 29.9617 33.1245 
11266 0 3 24.5961 3.54955 0.971302 
17540 0 3 23.1998 3.17941 3.84562 
24538 0 3 22.9536 3.40246 2.52516 
10330 0 3 25.788 3.61514 5.8894 
26030 0 3 23.3496 2.1893 6.6246 
15316 0 3 27.3705 1.78272 6.85619 
15170 0 3 25.6072 4.52867 7.72837 
15058 0 3 22.6701 0.899125 8.16722 
3078 0 3 24.0912 4.12633 9.71232 
26497 0 3 27.8398 2.51753 10.2027 
12821 0 3 22.8465 5.97306 11.2951 
14119 0 3 22.519 5.71131 13.7004 
11244 0 3 23.8065 1.85307 16.8643 
17581 0 3 22.5834 3.42623 17.9849 
9676 0 3 27.3343 3.08376 19.8795 
23747 0 3 26.1594 4.36408 19.6346 
3032 0 3 25.7005 1.46762 23.701 
21102 0 3 22.8555 2.81611 22.5774 
10325 0 3 23.8464 4.7491 23.3296 
726 0 3 23.4119 2.23995 25.9432 
638 0 3 27.877 3.20509 25.3917 
16208 0 3 24.6636 5.71999 24.7209 
9938 0 3 22.5544 4.78861 26.425 
12334 0 3 24.1011 3.35075 28.0596 
8592 0 3 26.7703 4.10607 28.1928 
26381 0 3 25.2474 4.67371 28.1945 
4225 0 3 24.7087 2.34985 29.9919 
23322 0 3 27.3558 2.20576 30.6087 
9383 0 3 24.6805 5.98202 30.6595 
5783 0 3 26.3184 4.73554 31.5155 
15049 0 3 23.0292 3.185 31.9915 
1212 0 3 27.1014 4.77277 32.1875 
24561 0 3 25.476 10.9581 1.33973 
7106 0 3 25.5689 7.21939 2.96376 
7819 0 3 27.7832 7.44202 2.57192 
5472 0 3 22.656 9.14602 4.95773 
5345 0 3 27.4134 8.8282 4.53944 
22458 0 3 23.3778 7.7632 6.54994 
180 0 3 25.2582 6.49112 6.74971 
25347 0 3 24.2948 7.26381 6.19927 
24606 0 3 24.8231 7.97054 9.67072 
15315 0 3 24.1656 7.67861 11.0511 
10144 0 3 24.2498 6.27196 9.73193 
17160 0 3 26.5446 7.87949 10.956 
19170 0 3 23.901 6.11326 12.1939 
22103 0 3 24.2743 11.0001 12.6018 
20408 0 3 22.7474 7.36457 16.8105 
4664 0 3 27.6253 8.41003 16.5342 
22609 0 3 27.4595 8.40055 17.636 
1235 0 3 22.8067 8.22928 21.2755 
3026 0 3 26.7714 6.87642 24.5954 
26776 0 3 23.2755 9.64223 25.581 
15173 0 3 26.1755 8.23032 26.2906 
883 0 3 27.8833 7.88339 29.2651 
4871 0 3 27.1804 8.69468 28.9627 
18453 0 3 26.6432 6.97869 31.1225 
14326 0 3 23.6896 7.93342 30.4675 
541 0 3 26.7349 7.78214 32.4461 
190 0 3 24.9358 13.3151 6.72671 
10120 0 3 26.473 12.6179 7.71788 
20048 0 3 26.015 15.9304 7.04833 
13390 0 3 27.874 15.4107 6.77442 
15681 0 3 26.493 14.3135 9.06237 
17204 0 3 25.2195 16.1715 10.3966 
13821 0 3 23.8775 13.3357 12.7576 
24998 0 3 22.6438 13.7055 12.7848 
24875 0 3 24.0932 16.4619 13.1925 
18426 0 3 23.6041 16.6662 11.8787 
5173 0 3 26.3748 15.8504 11.7501 
13777 0 3 24.7902 11.6807 14.6392 
12919 0 3 27.6294 12.4646 15.0791 
18584 0 3 22.7727 15.611 13.7332 
25219 0 3 26.3788 12.9699 15.2148 
12542 0 3 27.352 13.3632 16.8949 
24198 0 3 27.0707 13.178 18.7303 
24430 0 3 24.6678 14.7793 19.871 
4479 0 3 22.5782 15.6714 18.9837 
23575 0 3 25.3532 13.4246 21.1517 
2060 0 3 26.5535 14.1189 21.0106 
18660 0 3 26.3141 13.896 22.1336 
12105 0 3 23.7189 12.4131 24.2275 
10 0 3 25.0227 12.7926 23.6901 
19382 0 3 22.5916 13.8686 23.0322 
9328 0 3 27.4707 11.5811 26.0707 
8280 0 3 27.2287 12.4946 25.4984 
15327 0 3 27.2766 11.6894 27.6534 
5061 0 3 26.0631 16.9154 27.7946 
23214 0 3 23.9416 12.4511 28.6109 
8409 0 3 23.5263 15.3699 29.3289 
2897 0 3 26.0968 13.1387 30.2982 
2337 0 3 27.7732 14.6281 31.017 
19625 0 3 26.6162 17.5945 1.14593 
25108 0 3 27.2256 19.7915 3.64096 
16723 0 3 25.1566 18.3035 6.34673 
22021 0 3 27.8535 17.9 6.93693 
5195 0 3 24.889 22.0299 7.00265 
9094 0 3 25.8703 19.8315 9.8881 
17889 0 3 25.4301 17.7227 11.7183 
12557 0 3 24.0376 17.4403 14.0203 
18446 0 3 24.3027 22.1066 14.746 
25338 0 3 25.4122 21.1887 16.5236 
6383 0 3 26.145 22.2291 15.635 
8426 0 3 26.3362 20.9388 17.2364 
10600 0 3 27.9024 17.0411 20.245 
7008 0 3 24.2699 17.2535 21.1778 
13542 0 3 23.9578 17.5885 24.2088 
23050 0 3 24.4032 18.3899 23.2982 
20341 0 3 26.2103 22.3872 23.0598 
16903 0 3 24.0854 18.0214 26.2184 
21522 0 3 27.7172 18.5163 26.9056 
22597 0 3 22.6933 21.958 29.4036 
6823 0 3 23.9551 18.5141 32.2626 
3912 0 3 25.702 22.8847 2.29225 
16442 0 3 24.545 24.3178 1.48679 
24613 0 3 27.3294 24.7587 0.948991 
18918 0 3 23.2842 27.2725 1.84729 
16828 0 3 26.7759 25.63 3.533 
2216 0 3 24.0226 27.5147 4.12583 
8316 0 3 27.6631 24.5709 4.83698 
19727 0 3 25.0091 25.7373 6.15137 
23857 0 3 22.8969 27.1926 7.50565 
13594 0 3 23.1871 24.5617 8.85016 
14020 0 3 24.0919 27.8191 9.02829 
5197 0 3 23.9589 26.8277 9.36294 
11132 0 3 26.4881 22.5939 9.93478 
18095 0 3 23.9907 23.5494 13.4684 
12261 0 3 27.8666 24.5805 16.4092 
25114 0 3 24.9243 27.1313 16.1347 
2198 0 3 26.5371 27.0719 16.4706 
11580 0 3 23.2467 24.0485 18.7408 
16673 0 3 25.409 24.1325 18.7056 
14129 0 3 23.2579 26.3365 20.2145 
19000 0 3 27.3774 24.1034 21.1771 
25345 0 3 26.1504 26.3092 24.5858 
18386 0 3 23.1479 24.2826 26.8685 
4606 0 3 26.6757 24.9427 26.1929 
9967 0 3 23.0516 25.098 32.1757 
22752 0 3 27.7495 29.7126 1.48885 
8326 0 3 25.7121 31.1013 5.01594 
11950 0 3 23.9026 28.2769 7.06352 
26398 0 3 26.5952 32.8232 8.31041 
11747 0 3 23.6415 29.3452 10.1366 
10754 0 3 26.1393 28.7943 9.93348 
4297 0 3 24.7778 30.9946 10.4614 
16107 0 3 27.6978 31.2557 10.4826 
15811 0 3 24.9192 31.1583 13.0901 
21667 0 3 23.5929 30.7121 15.0284 
11130 0 3 27.8796 30.4076 14.2428 
5075 0 3 24.0991 31.562 15.4514 
23220 0 3 23.3581 32.2646 18.5243 
11629 0 3 24.0666 32.1095 17.7609 
22796 0 3 22.9929 28.6709 19.7554 
19383 0 3 24.0969 29.7435 24.7925 
15838 0 3 25.957 29.1089 25.8469 
11316 0 3 24.9897 28.0161 25.8644 
1974 0 3 23.4723 30.8901 25.1539 
25329 0 3 23.2339 32.8541 25.6466 
3667 0 3 25.6703 33.3219 25.6403 
19384 0 3 27.4489 30.8764 28.9939 
16350 0 3 25.8151 32.3763 29.6807 
25217 0 3 25.7883 31.2122 30.2253 
10383 0 3 27.5096 32.6324 30.258 
12311 0 3 31.1615 0.876883 0.779963 
20684 0 3 28.5745 0.980158 2.63157 
24641 0 3 31.8803 2.6266 8.99879 
13675 0 3 33.2736 3.31444 8.98153 
7979 0 3 32.1871 2.26738 10.0326 
12924 0 3 30.4694 2.9006 12.6625 
12077 0 3 33.0988 0.806926 20.4946 
16084 0 3 32.253 2.8761 19.099 
15267 0 3 32.7081 1.06709 21.7999 
23424 0 3 28.72 2.15577 23.3555 
14404 0 3 31.2514 0.80334 23.1382 
8136 0 3 33.3293 0.815162 23.563 
4216 0 3 32.4641 2.32935 23.6199 
22963 0 3 30.9226 0.59981 26.0314 
4235 0 3 32.2065 2.35938 25.0718 
6541 0 3 29.5452 4.52235 25.9481 
19615 0 3 28.8213 3.27805 26.266 
6867 0 3 29.2428 5.19451 26.7624 
11381 0 3 28.1783 6.04109 26.2907 
22603 0 3 31.2347 6.0092 27.249 
17284 0 3 30.5394 0.881752 29.5237 
5414 0 3 29.0852 4.57414 29.7143 
26211 0 3 30.7503 1.30383 30.5469 
4329 0 3 32.2189 4.10067 29.9863 
11545 0 3 31.0408 4.27707 30.1483 
6319 0 3 32.7729 2.4627 32.111 
20028 0 3 28.2043 6.58648 1.1428 
1234 0 3 29.266 6.13892 1.01413 
18741 0 3 32.1646 6.29498 0.992008 
12445 0 3 33.1773 9.67185 0.883598 
24960 0 3 30.3375 8.41805 2.9176 
12377 0 3 29.674 10.0585 4.50415 
12696 0 3 31.7369 11.0283 7.59314 
5083 0 3 32.3859 7.17981 8.5209 
14425 0 3 29.5518 10.2135 9.26583 
3621 0 3 33.1356 7.16832 9.8163 
17056 0 3 30.3879 9.55668 10.5932 
7719 0 3 31.0606 8.44491 11.3112 
21573 0 3 29.5204 6.24405 12.2519 
11583 0 3 32.2022 10.7153 15.052 
10166 0 3 31.7839 6.72627 17.6675 
21598 0 3 31.6102 10.4791 18.4786 
25609 0 3 32.9024 10.0562 20.4248 
666 0 3 28.546 9.63682 21.1163 
18968 0 3 28.0246 7.13272 25.7786 
19016 0 3 30.4853 6.96167 25.7918 
5621 0 3 29.388 9.70645 25.251 
17899 0 3 33.3207 8.09887 24.7978 
22265 0 3 30.5171 7.90695 27.8921 
22300 0 3 31.6086 8.60609 29.6846 
21728 0 3 28.78 10.0362 29.744 
16219 0 3 32.7646 10.3886 30.8142 
3471 0 3 32.9215 6.16334 32.5927 
2074 0 3 28.4343 9.08514 33.175 
19075 0 3 30.0395 9.78838 32.1892 
6638 0 3 31.9262 10.5613 32.5121 
15690 0 3 33.1296 9.8241 31.928 
25937 0 3 29.2469 13.23 1.27331 
9798 0 3 29.3717 16.5466 2.49606 
21482 0 3 29.2255 15.0973 5.30187 
14166 0 3 32.7712 11.8284 9.12627 
10969 0 3 30.9606 13.8475 16.8771 
26099 0 3 27.9709 15.2285 15.4458 
16513 0 3 29.154 13.887 17.8131 
26244 0 3 28.5099 16.1198 18.2208 
19381 0 3 33.1557 15.1917 18.3916 
8439 0 3 31.6278 14.5884 19.711 
16845 0 3 30.3116 16.4785 19.5463 
23110 0 3 29.9924 12.7299 21.3316 
7249 0 3 27.9954 16.2821 27.1423 
15416 0 3 31.3002 20.7127 1.66311 
21455 0 3 28.2358 19.0163 6.64283 
19050 0 3 28.1387 17.0164 10.3795 
6616 0 3 30.393 21.0128 16.2521 
11964 0 3 31.8876 22.1104 15.6681 
23117 0 3 32.801 17.0783 18.185 
15451 0 3 33.1398 17.3277 19.3476 
4662 0 3 28.08 19.1213 18.8232 
17314 0 3 28.9598 19.871 19.2256 
9272 0 3 28.8357 18.0551 22.5969 
19134 0 3 28.2041 20.4874 25.8478 
18073 0 3 31.1682 22.0159 27.5683 
21680 0 3 30.8468 21.3902 28.5102 
2725 0 3 31.5946 20.7429 29.5823 
6372 0 3 29.1498 17.2156 32.7903 
18340 0 3 31.1144 21.2293 33.3154 
23395 0 3 31.5691 22.9842 2.11003 
1812 0 3 29.7137 26.108 2.92346 
7309 0 3 30.914 27.367 2.68544 
18895 0 3 29.571 23.2036 4.35075 
6299 0 3 31.1775 25.3929 5.71531 
869 0 3 33.0507 24.7382 4.46884 
26111 0 3 30.8342 23.2037 6.48032 
6886 0 3 31.1904 25.8257 6.9341 
15564 0 3 31.9869 26.2866 7.4196 
2215 0 3 29.8974 23.3481 8.76879 
16367 0 3 29.324 25.579 8.07515 
19887 0 3 29.3224 25.5778 9.16387 
23479 0 3 28.2495 26.8082 8.76179 
18494 0 3 28.5935 23.5873 11.3246 
13262 0 3 30.2424 23.482 9.88973 
21845 0 3 31.6036 26.9178 10.425 
19340 0 3 29.4776 27.8595 12.4462 
6075 0 3 28.204 24.7308 13.6109 
20768 0 3 29.854 23.2111 15.8722 
659 0 3 29.4977 25.7748 16.2272 
12785 0 3 29.5386 23.93 17.2795 
4280 0 3 30.071 22.8141 19.1853 
15453 0 3 32.3541 26.4297 20.6468 
25510 0 3 29.3517 24.2326 23.6785 
13769 0 3 31.6843 26.4282 25.5475 
406 0 3 29.2725 25.1491 27.7199 