LAMMPS (3 Mar 2020)
OMP_NUM_THREADS environment is not set. Defaulting to 1 thread. (src/comm.cpp:94)
  using 1 OpenMP thread(s) per MPI task
Reading restart file ...
  restart file = 3 Mar 2020, LAMMPS = 3 Mar 2020
  restoring atom style full from restart
  orthogonal box = (0.591533 0.591533 0.591533) to (33.4085 33.4085 33.4085)
  6 by 6 by 6 MPI processor grid
  restoring pair style hybrid/overlay from restart
  restoring bond style fene from restart
  28900 atoms
  8700 bonds
Finding 1-2 1-3 1-4 neighbors ...
  special bond factors lj:   0          1          1         
  special bond factors coul: 0          1          1         
  2 = max # of 1-2 neighbors
  6 = max # of special neighbors
  special bonds CPU = 2.44476 secs
  read_restart CPU = 2.60672 secs
Resetting global fix info from restart file:
  fix style: nvt, fix ID: pt
100 rigid bodies with 1900 atoms
Resetting global fix info from restart file:
  fix style: rigid/nvt, fix ID: ri
System init for write_data ...
PPPM initialization ...
  using 12-bit tables for long-range coulomb (src/kspace.cpp:332)
  G vector (1/distance) = 1.17992
  grid = 100 100 100
  stencil order = 5
  estimated absolute RMS force accuracy = 0.000122379
  estimated relative force accuracy = 0.000122379
  using double precision FFTW3
  3d grid and FFT values/proc = 12167 5400
All restart file global fix info was re-assigned
Unused restart file peratom fix info:
  fix style: STORE, fix ID: par_COMPUTE_STORE
WARNING: Neighbor exclusions used with KSpace solver may give inconsistent Coulombic energies (src/neighbor.cpp:486)
Neighbor list info ...
  update every 1 steps, delay 0 steps, check yes
  max neighbors/atom: 2000, page size: 100000
  master list distance cutoff = 2.8
  ghost atom cutoff = 2.8
  binsize = 1.4, bins = 24 24 24
  2 neighbor lists, perpetual/occasional/extra = 2 0 0
  (1) pair lj/cut, perpetual
      attributes: half, newton on
      pair build: half/bin/newton
      stencil: half/bin/3d/newton
      bin: standard
  (2) pair coul/long, perpetual, skip from (1)
      attributes: half, newton on
      pair build: skip
      stencil: none
      bin: none
PPPM initialization ...
  using 12-bit tables for long-range coulomb (src/kspace.cpp:332)
  G vector (1/distance) = 1.17992
  grid = 100 100 100
  stencil order = 5
  estimated absolute RMS force accuracy = 0.000122379
  estimated relative force accuracy = 0.000122379
  using double precision FFTW3
  3d grid and FFT values/proc = 12167 5400
WARNING: Neighbor exclusions used with KSpace solver may give inconsistent Coulombic energies (src/neighbor.cpp:486)
Neighbor list info ...
  update every 1 steps, delay 0 steps, check yes
  max neighbors/atom: 2000, page size: 100000
  master list distance cutoff = 2.8
  ghost atom cutoff = 2.8
  binsize = 1.4, bins = 24 24 24
  2 neighbor lists, perpetual/occasional/extra = 2 0 0
  (1) pair lj/cut, perpetual
      attributes: half, newton on
      pair build: half/bin/newton
      stencil: half/bin/3d/newton
      bin: standard
  (2) pair coul/long, perpetual, skip from (1)
      attributes: half, newton on
      pair build: skip
      stencil: none
      bin: none
Setting up Verlet run ...
  Unit style    : lj
  Current step  : 12000000
  Time step     : 0.005
Per MPI rank memory allocation (min/avg/max) = 10.33 | 10.42 | 10.59 Mbytes
Step Temp Press Volume 
12000000   0.79871784   0.12764738    35342.233 
12010000   0.79941505  -0.18144482    35342.233 
12020000   0.80560549  -0.15420168    35342.233 
12030000    0.8018329  -0.15843028    35342.233 
12040000   0.79668496  -0.13898748    35342.233 
12050000   0.80395646  -0.16790504    35342.233 
12060000   0.79719351  -0.10175908    35342.233 
12070000   0.80136167  -0.15495011    35342.233 
12080000   0.80095168  -0.15681122    35342.233 
12090000   0.80552306  -0.17365793    35342.233 
12100000   0.79861944  -0.10689894    35342.233 
12110000   0.79779463  -0.18268419    35342.233 
12120000   0.79181989  -0.10747063    35342.233 
12130000   0.80206432 -0.065243709    35342.233 
12140000   0.79893434   -0.1672601    35342.233 
12150000   0.80631028 -0.064800509    35342.233 
12160000   0.80071609   -0.1478113    35342.233 
12170000   0.80674502 -0.093443869    35342.233 
12180000   0.79514361  -0.18776132    35342.233 
12190000   0.80543335 -0.083581259    35342.233 
12200000   0.80075265 -0.066280155    35342.233 
12210000   0.79828802  -0.10988438    35342.233 
12220000    0.7994748  -0.14149729    35342.233 
12230000   0.79869909  -0.10680016    35342.233 
12240000    0.7919391 -0.098213655    35342.233 
12250000   0.80520633  -0.12525403    35342.233 
12260000   0.80475133  -0.13366023    35342.233 
12270000   0.80095493   -0.1449048    35342.233 
12280000   0.80459643  -0.14064504    35342.233 
12290000   0.80289242 -0.048391891    35342.233 
12300000   0.80859392  -0.15827219    35342.233 
12310000   0.80228257  -0.11531079    35342.233 
12320000   0.79392316  -0.16745585    35342.233 
12330000    0.7976605  -0.14181316    35342.233 
12340000   0.79839734  -0.15347509    35342.233 
12350000   0.80568993  -0.13958846    35342.233 
12360000   0.80013551  -0.12503525    35342.233 
12370000    0.7970147  -0.14482741    35342.233 
12380000   0.79567728  -0.15528949    35342.233 
12390000   0.80755022 -0.085795994    35342.233 
12400000   0.79631801  -0.15385866    35342.233 
12410000   0.79297116  -0.10139276    35342.233 
12420000   0.80360182  -0.17655819    35342.233 
12430000   0.79888457  -0.13116324    35342.233 
12440000    0.7921574 -0.073092358    35342.233 
12450000   0.79515268 -0.098797482    35342.233 
12460000   0.79854144  -0.11057157    35342.233 
12470000   0.80380058  -0.12237523    35342.233 
12480000   0.80681301  -0.12396564    35342.233 
12490000   0.80768501  -0.10472192    35342.233 
12500000   0.79971706 -0.081583048    35342.233 
12510000   0.80157335  -0.15593003    35342.233 
12520000    0.8016954  -0.10677304    35342.233 
12530000   0.80372719  -0.14015221    35342.233 
12540000   0.80861594  -0.10584031    35342.233 
12550000   0.80189092  -0.11717374    35342.233 
12560000   0.79367098  -0.13635751    35342.233 
12570000   0.80203134  -0.13465757    35342.233 
12580000     0.798875  -0.20093726    35342.233 
12590000   0.79816685  -0.11278758    35342.233 
12600000   0.80143404 -0.095860135    35342.233 
12610000   0.80312565  -0.11952678    35342.233 
12620000   0.80350003  -0.10822582    35342.233 
12630000   0.79664788  -0.19074428    35342.233 
12640000   0.80318958  -0.12123312    35342.233 
12650000   0.79538534  -0.10316444    35342.233 
12660000   0.79831989  -0.08884696    35342.233 
12670000   0.79991148 -0.073884962    35342.233 
12680000   0.79855775 -0.068513535    35342.233 
12690000   0.80201341  -0.10389642    35342.233 
12700000   0.79892966  -0.12143124    35342.233 
12710000   0.79933008 -0.079700931    35342.233 
12720000   0.80105325  -0.11125946    35342.233 
12730000   0.80409864 -0.096087176    35342.233 
12740000   0.79701731 -0.087766722    35342.233 
12750000   0.80017254  -0.17807961    35342.233 
12760000   0.79244036  -0.11502154    35342.233 
12770000   0.79975649  -0.14742094    35342.233 
12780000   0.80593229 -0.086558669    35342.233 
12790000   0.80303865  -0.14396283    35342.233 
12800000   0.80228071  -0.22683844    35342.233 
12810000   0.79604883  -0.23024901    35342.233 
12820000   0.79010601 -0.098381753    35342.233 
12830000   0.80454977  -0.11014981    35342.233 
12840000   0.79753755  -0.12327754    35342.233 
12850000   0.79974846  -0.12687996    35342.233 
12860000   0.80672878  -0.10859506    35342.233 
12870000     0.805435  -0.15518029    35342.233 
12880000   0.80376759 -0.044038934    35342.233 
12890000   0.79930087  -0.18732671    35342.233 
12900000    0.8011382  -0.12234502    35342.233 
12910000   0.81078928  -0.13185281    35342.233 
12920000   0.79818095  -0.11400018    35342.233 
12930000   0.79716509  -0.12890767    35342.233 
12940000   0.80420208    -0.127263    35342.233 
12950000   0.79692717  -0.23011691    35342.233 
12960000   0.80315579 -0.099584563    35342.233 
12970000   0.79571054  -0.14898456    35342.233 
12980000   0.80027115  -0.10001621    35342.233 
12990000   0.80088252 -0.084002016    35342.233 
13000000   0.79675218  -0.11550597    35342.233 
Loop time of 10384.4 on 216 procs for 1000000 steps with 28900 atoms

Performance: 41600.857 tau/day, 96.298 timesteps/s
99.9% CPU use with 216 MPI tasks x 1 OpenMP threads

MPI task timing breakdown:
Section |  min time  |  avg time  |  max time  |%varavg| %total
---------------------------------------------------------------
Pair    | 80.113     | 139.45     | 211.66     | 217.0 |  1.34
Bond    | 1.1855     | 2.2081     | 2.8898     |  19.0 |  0.02
Kspace  | 9178.2     | 9341.1     | 9429.3     |  48.8 | 89.95
Neigh   | 124.38     | 129.43     | 135.45     |  21.3 |  1.25
Comm    | 244.29     | 314.73     | 407.04     | 203.2 |  3.03
Output  | 0.011961   | 0.013942   | 0.02461    |   0.9 |  0.00
Modify  | 319.29     | 364.09     | 409.14     |  94.6 |  3.51
Other   |            | 93.4       |            |       |  0.90

Nlocal:    133.796 ave 213 max 1 min
Histogram: 2 3 3 2 5 38 129 25 4 5
Nghost:    977.13 ave 1117 max 343 min
Histogram: 1 2 2 2 5 5 10 20 118 51
Neighs:    5104.98 ave 9890 max 0 min
Histogram: 6 3 4 9 68 85 29 5 5 2

Total # of neighbors = 1102676
Ave neighs/atom = 38.1549
Ave special neighs/atom = 0.602076
Neighbor list builds = 134287
Dangerous builds = 0
PPPM initialization ...
  using 12-bit tables for long-range coulomb (src/kspace.cpp:332)
  G vector (1/distance) = 1.17992
  grid = 100 100 100
  stencil order = 5
  estimated absolute RMS force accuracy = 0.000122379
  estimated relative force accuracy = 0.000122379
  using double precision FFTW3
  3d grid and FFT values/proc = 12167 5400
WARNING: Neighbor exclusions used with KSpace solver may give inconsistent Coulombic energies (src/neighbor.cpp:486)
Neighbor list info ...
  update every 1 steps, delay 0 steps, check yes
  max neighbors/atom: 2000, page size: 100000
  master list distance cutoff = 2.8
  ghost atom cutoff = 2.8
  binsize = 1.4, bins = 24 24 24
  12 neighbor lists, perpetual/occasional/extra = 2 10 0
  (1) pair lj/cut, perpetual
      attributes: half, newton on
      pair build: half/bin/newton
      stencil: half/bin/3d/newton
      bin: standard
  (2) pair coul/long, perpetual, skip from (1)
      attributes: half, newton on
      pair build: skip
      stencil: none
      bin: none
  (3) compute rdf, occasional, copy from (1)
      attributes: half, newton on
      pair build: copy
      stencil: none
      bin: none
  (4) compute rdf, occasional, copy from (1)
      attributes: half, newton on
      pair build: copy
      stencil: none
      bin: none
  (5) compute rdf, occasional, copy from (1)
      attributes: half, newton on
      pair build: copy
      stencil: none
      bin: none
  (6) compute rdf, occasional, copy from (1)
      attributes: half, newton on
      pair build: copy
      stencil: none
      bin: none
  (7) compute rdf, occasional, copy from (1)
      attributes: half, newton on
      pair build: copy
      stencil: none
      bin: none
  (8) compute rdf, occasional, copy from (1)
      attributes: half, newton on
      pair build: copy
      stencil: none
      bin: none
  (9) compute rdf, occasional, copy from (1)
      attributes: half, newton on
      pair build: copy
      stencil: none
      bin: none
  (10) compute rdf, occasional, copy from (1)
      attributes: half, newton on
      pair build: copy
      stencil: none
      bin: none
  (11) compute rdf, occasional, copy from (1)
      attributes: half, newton on
      pair build: copy
      stencil: none
      bin: none
  (12) compute rdf, occasional, copy from (1)
      attributes: half, newton on
      pair build: copy
      stencil: none
      bin: none
Setting up Verlet run ...
  Unit style    : lj
  Current step  : 0
  Time step     : 0.005
WARNING: One or more chunks do not contain all atoms in molecule (src/compute_chunk_atom.cpp:1163)
Per MPI rank memory allocation (min/avg/max) = 16.08 | 19.59 | 20.16 Mbytes
Step Temp Press PotEng KinEng E_pair E_bond TotEng 
       0   0.79675218 -0.018324297    1.7985898    1.1247853    -4.404837    6.2034268     2.923375 
   10000   0.79950616  -0.14070061    1.7920359    1.1286731   -4.4089612    6.2009971     2.920709 
   20000   0.80002408 -0.099881332    1.8017692    1.1294042   -4.3983757    6.2001449    2.9311735 
   30000   0.79917203  -0.11765719    1.7961692    1.1282014   -4.4083572    6.2045265    2.9243706 
   40000   0.79191599 -0.086446809      1.79003    1.1179579   -4.4102397    6.2002697    2.9079879 
   50000   0.80442904  -0.14058579     1.799676    1.1356228   -4.4016734    6.2013494    2.9352988 
   60000   0.80466996  -0.12926773    1.7855698    1.1359629   -4.4137732     6.199343    2.9215327 
   70000   0.79543364 -0.049153338    1.8047603    1.1229239   -4.3973169    6.2020773    2.9276842 
   80000   0.79804202  -0.11379023    1.7967538    1.1266061   -4.4058049    6.2025587      2.92336 
   90000   0.79631176  -0.18415826    1.7926187    1.1241635   -4.4121276    6.2047463    2.9167822 
  100000   0.79955427  -0.10649175    1.7951908     1.128741   -4.4100851    6.2052758    2.9239317 
  110000   0.80023428  -0.12076932    1.7857267     1.129701   -4.4136954    6.1994221    2.9154276 
  120000   0.80341348   -0.1623721    1.7926204    1.1341891    -4.410526    6.2031464    2.9268095 
  130000   0.80794542 -0.093619098    1.8038247    1.1405869    -4.399313    6.2031378    2.9444116 
  140000   0.79847449  -0.12119937    1.8004418    1.1272167   -4.4003907    6.2008325    2.9276585 
  150000   0.79454427  -0.10753797    1.7991419    1.1216683   -4.4050426    6.2041844    2.9208102 
  160000   0.80039565 -0.078857031    1.7865632    1.1299288   -4.4181158    6.2046789     2.916492 
  170000    0.8023184  -0.12369485     1.791775    1.1326432   -4.4141016    6.2058766    2.9244182 
  180000   0.79919944  -0.13930975     1.791767    1.1282401   -4.4152724    6.2070395    2.9200071 
  190000   0.79779861  -0.14837579    1.7972092    1.1262625   -4.4049679    6.2021771    2.9234717 
  200000   0.80403727 -0.085451544    1.7900148    1.1350697   -4.4131994    6.2032142    2.9250845 
  210000   0.80262175  -0.14921548    1.7832745    1.1330714   -4.4202874    6.2035619    2.9163458 
  220000   0.79523475 -0.098068302    1.7944862    1.1226431   -4.4072401    6.2017263    2.9171292 
  230000   0.80315611  -0.10559671    1.7853342    1.1338258   -4.4176238     6.202958      2.91916 
  240000    0.8010353  -0.15382069    1.7946131    1.1308318   -4.4106398    6.2052529    2.9254449 
  250000   0.79803497  -0.13568203    1.7919407    1.1265962   -4.4103156    6.2022563    2.9185369 
  260000   0.79646701  -0.12157817    1.8000315    1.1243827   -4.4043651    6.2043966    2.9244142 
  270000   0.79987194  -0.10997921    1.7904883    1.1291895   -4.4116265    6.2021148    2.9196777 
  280000   0.79907017 -0.086246813    1.7960654    1.1280576   -4.4072847    6.2033501     2.924123 
  290000   0.80141319  -0.11702084    1.8170118    1.1313653   -4.3893349    6.2063468    2.9483771 
  300000   0.79838031  -0.13051037    1.7786626    1.1270837   -4.4228128    6.2014754    2.9057463 
  310000   0.79031093  -0.12058355    1.7895671    1.1156921    -4.413089    6.2026562    2.9052592 
  320000   0.80169134 -0.077699572     1.780626    1.1317579   -4.4229492    6.2035752     2.912384 
  330000   0.79591016 -0.060846914    1.7866107    1.1235966   -4.4125896    6.1992003    2.9102072 
  340000    0.7959734  -0.16347889    1.8097051    1.1236858   -4.3929532    6.2026583    2.9333909 
  350000   0.80369341  -0.11082657    1.7953284    1.1345843   -4.4087745    6.2041029    2.9299127 
  360000   0.79718064 -0.097936187    1.7926552    1.1253901   -4.4127726    6.2054278    2.9180453 
  370000   0.80373761  -0.12310705     1.799385    1.1346467    -4.403486     6.202871    2.9340317 
  380000   0.80357245   -0.1679228    1.8029232    1.1344135   -4.3999033    6.2028265    2.9373367 
  390000   0.80623961  -0.12023989    1.7971274    1.1381788    -4.409489    6.2066164    2.9353062 
  400000   0.80254921   -0.1107789    1.7828189     1.132969   -4.4224391     6.205258    2.9157879 
  410000   0.80134349  -0.14104695    1.8024326    1.1312669   -4.4001412    6.2025737    2.9336994 
  420000   0.80097717 -0.055959045    1.7828629    1.1307497   -4.4195855    6.2024484    2.9136127 
  430000   0.80085074  -0.18943787    1.8060288    1.1305712    -4.398304    6.2043328       2.9366 
  440000    0.8005658 -0.097095267    1.7880754     1.130169   -4.4170655    6.2051409    2.9182444 
  450000   0.80094368  -0.18894564     1.789576    1.1307025   -4.4137136    6.2032896    2.9202784 
  460000   0.79856927  -0.15379441    1.7942302    1.1273505   -4.4055435    6.1997737    2.9215806 
  470000   0.79292574  -0.11813014    1.7812162    1.1193834   -4.4250605    6.2062767    2.9005996 
  480000   0.79138244  -0.14706862     1.801224    1.1172047   -4.4028722    6.2040963    2.9184287 
  490000   0.80255556  -0.13849585     1.790339     1.132978   -4.4142911    6.2046302     2.923317 
  500000   0.79559695  -0.11944359    1.7801402    1.1231544   -4.4201676    6.2003078    2.9032946 
  510000   0.80526097  -0.16235486    1.7993865    1.1367972   -4.4035682    6.2029547    2.9361837 
  520000   0.80118248 -0.065238931    1.7898671    1.1310396   -4.4155883    6.2054554    2.9209066 
  530000   0.80542576  -0.15743483     1.793307    1.1370299    -4.408699     6.202006    2.9303369 
  540000   0.80360287  -0.11076682    1.7859536    1.1344565   -4.4170437    6.2029974    2.9204101 
  550000     0.804273  -0.13254115    1.7972541    1.1354025   -4.4075831    6.2048371    2.9326565 
  560000   0.79968422 -0.032284903    1.8023186    1.1289244   -4.4019332    6.2042518     2.931243 
  570000   0.80823725  -0.12982047    1.7972033    1.1409989   -4.4054047     6.202608    2.9382021 
  580000   0.79866702  -0.11697607    1.7767713    1.1274885   -4.4268107     6.203582    2.9042597 
  590000   0.79480074  -0.11683832    1.7705199    1.1220304   -4.4323627    6.2028826    2.8925502 
  600000   0.79837691 -0.098918684    1.8008342    1.1270789   -4.4031004    6.2039346    2.9279131 
  610000   0.80147866  -0.11004359    1.7951634    1.1314577    -4.411403    6.2065665    2.9266211 
  620000   0.80537011  -0.11877328    1.7944194    1.1369513    -4.407861    6.2022804    2.9313707 
  630000   0.79737886  -0.14041616    1.7932216    1.1256699     -4.40663    6.1998516    2.9188915 
  640000   0.80168942  -0.16683704    1.7965638    1.1317552   -4.4054018    6.2019657    2.9283191 
  650000   0.80288126 -0.073937575    1.7960618    1.1334378   -4.4086944    6.2047562    2.9294996 
  660000   0.80006931  -0.14156471    1.7908686    1.1294681   -4.4101487    6.2010172    2.9203367 
  670000   0.79736321 -0.089053694    1.7932511    1.1256479   -4.4107474    6.2039985    2.9188989 
  680000   0.80141251  -0.13429189    1.7850881    1.1313643    -4.417306    6.2023941    2.9164524 
  690000   0.80754113 -0.094753045    1.8008873    1.1400161   -4.4033874    6.2042747    2.9409034 
  700000   0.80226192 -0.087133019    1.8037078    1.1325634   -4.4007168    6.2044246    2.9362712 
  710000   0.80161256  -0.17122496    1.7738289    1.1316467    -4.428989    6.2028179    2.9054756 
  720000   0.79730497  -0.11729349     1.791987    1.1255656   -4.4116021    6.2035891    2.9175526 
  730000   0.79831598  -0.17213826    1.8074846    1.1269929   -4.3941743    6.2016589    2.9344775 
  740000   0.79920674 -0.082034684    1.8056966    1.1282504   -4.3996176    6.2053142     2.933947 
  750000   0.79960053 -0.068587981    1.7781922    1.1288063   -4.4242993    6.2024915    2.9069985 
  760000   0.79797211  -0.16639862    1.8010463    1.1265074   -4.4041479    6.2051943    2.9275538 
  770000    0.7906613  -0.18750133    1.7851532    1.1161867   -4.4177096    6.2028628    2.9013399 
  780000   0.80248783  -0.10398234    1.7951214    1.1328823   -4.4078427    6.2029641    2.9280038 
  790000   0.80140308  -0.11773588    1.7935308     1.131351    -4.408672    6.2022029    2.9248818 
  800000   0.79859153  -0.12849425    1.7985617    1.1273819   -4.4047051    6.2032668    2.9259436 
  810000   0.80313447 -0.084699786    1.7984899    1.1337952   -4.4079302    6.2064201    2.9322851 
  820000   0.79850287  -0.12470146    1.7861864    1.1272567   -4.4162223    6.2024087    2.9134431 
  830000   0.79947203 -0.068878059     1.785872    1.1286249   -4.4155021    6.2013741    2.9144968 
  840000   0.79866707 -0.094755309     1.792591    1.1274885   -4.4117357    6.2043267    2.9200795 
  850000   0.79705888  -0.17547757    1.8017358    1.1252182   -4.4037995    6.2055353     2.926954 
  860000   0.80323473  -0.18902463    1.8016137    1.1339367   -4.4074919    6.2091056    2.9355505 
  870000    0.7916038  -0.15789948    1.8201476    1.1175172   -4.3884725    6.2086201    2.9376648 
  880000   0.80794508  -0.14597781    1.8013824    1.1405864   -4.4019385    6.2033209    2.9419688 
  890000     0.799776  -0.16943053    1.8005947     1.129054   -4.4004986    6.2010933    2.9296487 
  900000   0.79805625  -0.16048499     1.802754    1.1266262     -4.40303     6.205784    2.9293802 
  910000   0.79746952  -0.11356383    1.7969109    1.1257979   -4.4065808    6.2034917    2.9227088 
  920000   0.80507401 -0.058205886    1.7882296    1.1365333   -4.4146295     6.202859    2.9247629 
  930000   0.79977982  -0.10283963    1.7911737    1.1290594   -4.4096763      6.20085    2.9202331 
  940000   0.80443238   -0.1445681    1.8080446    1.1356275   -4.3951413    6.2031859    2.9436721 
  950000   0.80483232  -0.16778299    1.7961409    1.1361921     -4.40792    6.2040609     2.932333 
  960000   0.80453375  -0.10837485     1.793048    1.1357706   -4.4089429    6.2019909    2.9288186 
  970000   0.80543182  -0.20145191    1.7966169    1.1370384   -4.4076596    6.2042765    2.9336553 
  980000   0.79258933   -0.1176134      1.79754    1.1189085   -4.4022805    6.1998205    2.9164485 
  990000   0.80981334  -0.10080246    1.8000214    1.1432239    -4.403459    6.2034804    2.9432453 
 1000000   0.79958179  -0.14075562    1.8048752    1.1287799   -4.4015152    6.2063904    2.9336551 
 1010000   0.79465421  -0.17507955    1.7982502    1.1218235   -4.4050267    6.2032769    2.9200737 
 1020000   0.80381096  -0.13537005    1.7934142    1.1347502   -4.4107536    6.2041678    2.9281644 
 1030000   0.80538696  -0.12847031    1.8015747    1.1369751   -4.4024849    6.2040596    2.9385498 
 1040000   0.80876912  -0.17206131    1.7960092    1.1417497   -4.4052206    6.2012298    2.9377589 
 1050000   0.80798026  -0.15835198    1.7960641    1.1406361   -4.4077986    6.2038628    2.9367002 
 1060000   0.80527861  -0.21248966    1.7951357    1.1368221   -4.4080726    6.2032083    2.9319579 
 1070000    0.7973332  -0.13432316    1.7901001    1.1256055   -4.4147057    6.2048058    2.9157056 
 1080000   0.80047548  -0.12067517    1.7922069    1.1300415   -4.4090365    6.2012434    2.9222484 
 1090000   0.80872928   -0.1626072    1.8043476    1.1416935     -4.39821    6.2025576    2.9460411 
 1100000   0.79611205  -0.14656254    1.7979785    1.1238816   -4.4053096    6.2032881    2.9218601 
 1110000   0.79869868  -0.17903517    1.7905081    1.1275332   -4.4122421    6.2027502    2.9180412 
 1120000   0.80289526  -0.10203176    1.7971242    1.1334575   -4.4032529    6.2003771    2.9305817 
 1130000   0.80126211  -0.17382682    1.7944686     1.131152   -4.4087761    6.2032447    2.9256206 
 1140000   0.80290767  -0.17205487    1.7960485     1.133475   -4.4098892    6.2059377    2.9295236 
 1150000   0.78924551 -0.076745257     1.789155     1.114188   -4.4149009    6.2040559     2.903343 
 1160000   0.80144275  -0.22889448    1.7984111     1.131407   -4.4049528    6.2033639    2.9298181 
 1170000   0.79763307  -0.14976296    1.8079919    1.1260288   -4.3981921     6.206184    2.9340208 
 1180000   0.79883564 -0.073028937    1.7878296    1.1277265   -4.4135189    6.2013485    2.9155561 
 1190000   0.80035258  -0.11444542    1.7894789     1.129868   -4.4101073    6.1995862    2.9193469 
 1200000   0.79938106 -0.088228488    1.7833391    1.1284965   -4.4217007    6.2050398    2.9118356 
 1210000   0.79592474  -0.13138586    1.7845911    1.1236171   -4.4159739     6.200565    2.9082083 
 1220000   0.80341208 -0.085684031     1.792207    1.1341871   -4.4100344    6.2022414    2.9263942 
 1230000   0.80235999   -0.2214431    1.7933308    1.1327019   -4.4061898    6.1995206    2.9260327 
 1240000   0.79329129  -0.10586519    1.7890125    1.1198995   -4.4140363    6.2030488     2.908912 
 1250000   0.79750197  -0.21665311    1.7981457    1.1258437   -4.4040123     6.202158    2.9239895 
 1260000   0.79868413  -0.11350097    1.7977925    1.1275126   -4.4072409    6.2050334    2.9253051 
 1270000   0.79470343 -0.099876049    1.7929848     1.121893    -4.406755    6.1997398    2.9148778 
 1280000   0.79937635  -0.19250307    1.7961109    1.1284898    -4.407011    6.2031219    2.9246007 
 1290000   0.79018659 -0.050005814    1.7943695    1.1155165   -4.4109283    6.2052978    2.9098861 
 1300000   0.79479672  -0.13716345    1.7891614    1.1220247   -4.4158134    6.2049749    2.9111861 
 1310000   0.80042884  -0.12986658    1.8011232    1.1299756   -4.4022103    6.2033334    2.9310988 
 1320000   0.80319722  -0.18204944    1.7935582    1.1338838   -4.4114423    6.2050006     2.927442 
 1330000   0.80229888  -0.15898879    1.7818224    1.1326156   -4.4214376      6.20326     2.914438 
 1340000   0.80662155  -0.10645942    1.8053468     1.138718   -4.3989073    6.2042541    2.9440648 
 1350000   0.79463442  -0.17866621    1.8020252    1.1217956   -4.4022031    6.2042283    2.9238207 
 1360000   0.79659315  -0.15570766    1.7806644    1.1245607    -4.424286    6.2049504    2.9052251 
 1370000   0.80896881 -0.092879768    1.8026215    1.1420316   -4.4004593    6.2030807    2.9446531 
 1380000    0.8026989  -0.17994615    1.7904891    1.1331803   -4.4100247    6.2005138    2.9236694 
 1390000   0.79424114  -0.17454016    1.7991259    1.1212404   -4.4040214    6.2031472    2.9203662 
 1400000   0.79852816  -0.15788615    1.8017779    1.1272924    -4.400785    6.2025629    2.9290704 
 1410000   0.80068474  -0.18372091    1.7917544    1.1303369   -4.4104729    6.2022273    2.9220913 
 1420000   0.80690718  -0.13443713     1.796128    1.1391212   -4.4065554    6.2026834    2.9352492 
 1430000   0.79610192  -0.11015322    1.8024787    1.1238673   -4.3989133    6.2013919    2.9263459 
 1440000   0.79646993  -0.12870999    1.8047651    1.1243868   -4.4007468    6.2055119    2.9291519 
 1450000   0.80429992   -0.1309931     1.798887    1.1354405   -4.4058109    6.2046979    2.9343275 
 1460000   0.79853587  -0.11264006    1.7708629    1.1273033   -4.4295123    6.2003752    2.8981662 
 1470000    0.7949519  -0.15255704    1.7912898    1.1222438   -4.4143286    6.2056183    2.9135335 
 1480000   0.79995532  -0.12428844    1.7940985    1.1293072    -4.406714    6.2008125    2.9234057 
 1490000   0.78861217  -0.19839688    1.7969043    1.1132939   -4.4043122    6.2012164    2.9101982 
 1500000   0.80257961 -0.084274741    1.8090764    1.1330119   -4.3937786     6.202855    2.9420883 
 1510000   0.79500104 -0.082086557    1.8034497    1.1223131   -4.4001375    6.2035872    2.9257628 
 1520000   0.80342726 -0.085079318    1.7921461    1.1342086   -4.4118879     6.204034    2.9263546 
 1530000   0.79964491  -0.15691002    1.7963609     1.128869   -4.4070171     6.203378    2.9252299 
 1540000   0.79805231  -0.13610255    1.7867506    1.1266207   -4.4145803    6.2013309    2.9133713 
 1550000   0.79940362 -0.095696266    1.7808916    1.1285283   -4.4203266    6.2012182      2.90942 
 1560000   0.79719702  -0.19927609    1.7864878    1.1254132   -4.4174754    6.2039632    2.9119011 
 1570000   0.79807914 -0.081758156    1.7936361    1.1266585   -4.4152178    6.2088539    2.9202947 
 1580000   0.79899592   -0.1413698    1.7904008    1.1279528   -4.4134852    6.2038861    2.9183536 
 1590000   0.80503895  -0.14337061    1.7957426    1.1364838    -4.407068    6.2028106    2.9322264 
 1600000   0.80333881   -0.1066401    1.8081338    1.1340837   -4.3996166    6.2077503    2.9422174 
 1610000   0.80239107  -0.14078293    1.7942613    1.1327458   -4.4081016    6.2023629    2.9270071 
 1620000   0.80213353  -0.15324224    1.7896336    1.1323822   -4.4123061    6.2019397    2.9220158 
 1630000   0.80462457  -0.10290627    1.7904476    1.1358988   -4.4105392    6.2009868    2.9263464 
 1640000   0.80354927  -0.11789998    1.7804799    1.1343808   -4.4225229    6.2030029    2.9148607 
 1650000   0.80060754 -0.061778402    1.7872663    1.1302279   -4.4166468    6.2039132    2.9174942 
 1660000   0.80121312  -0.12088593    1.7830896    1.1310828   -4.4226588    6.2057484    2.9141724 
 1670000   0.79592223 -0.099775083    1.7935073    1.1236136   -4.4091591    6.2026664    2.9171209 
 1680000   0.80182273  -0.13984105    1.7917877    1.1319434   -4.4092168    6.2010045    2.9237312 
 1690000   0.79450742  -0.13669118    1.7872527    1.1216163   -4.4174731    6.2047258     2.908869 
 1700000   0.78928042  -0.10725632    1.7938233    1.1142373   -4.4085388    6.2023622    2.9080606 
 1710000   0.79284147  -0.14366887    1.7911667    1.1192645   -4.4128915    6.2040582    2.9104311 
 1720000   0.80242655 -0.098216468    1.7987626    1.1327958    -4.405478    6.2042407    2.9315584 
 1730000   0.80589934  -0.14166329    1.7944163    1.1376984   -4.4093348    6.2037511    2.9321147 
 1740000    0.7985205  -0.11592596    1.8099704    1.1272816   -4.3925261    6.2024966    2.9372521 
 1750000   0.79938278  -0.13138109    1.7992193    1.1284989   -4.4031247     6.202344    2.9277182 
 1760000   0.80106332  -0.15648451    1.8012254    1.1308713   -4.4032303    6.2044557    2.9320968 
 1770000   0.80014589   -0.1554879      1.78985    1.1295762   -4.4119288    6.2017787    2.9194262 
 1780000   0.80073863  -0.24142725    1.7917738     1.130413    -4.412512    6.2042857    2.9221868 
 1790000   0.79274181  -0.12114192    1.8181625    1.1191238   -4.3876906    6.2058531    2.9372862 
 1800000   0.79862082 -0.085683816    1.7956024    1.1274232   -4.4090573    6.2046597    2.9230256 
 1810000    0.7932671  -0.12601512    1.8071858    1.1198653   -4.3998791     6.207065    2.9270512 
 1820000   0.79162002  -0.14126695    1.8032679    1.1175401   -4.4016041     6.204872     2.920808 
 1830000   0.80392525  -0.16690519    1.7946911    1.1349116   -4.4078674    6.2025585    2.9296027 
 1840000    0.8049839  -0.16191921    1.8011523    1.1364061    -4.400187    6.2013393    2.9375584 
 1850000   0.80335201  -0.13647732    1.7823978    1.1341023   -4.4176358    6.2000336    2.9165001 
 1860000    0.7990569  -0.13225663    1.7952784    1.1280389   -4.4059733    6.2012517    2.9233173 
 1870000   0.79872096  -0.13108657     1.784617    1.1275646   -4.4168206    6.2014376    2.9121816 
 1880000   0.79910869   -0.1491458    1.8027173     1.128112   -4.4034853    6.2062027    2.9308293 
 1890000   0.80266105  -0.13085527    1.7990053    1.1331269   -4.4069153    6.2059206    2.9321322 
 1900000   0.80198362   -0.1412345     1.805807    1.1321705   -4.4001576    6.2059647    2.9379776 
 1910000    0.7999023 -0.079796558    1.7823504    1.1292323   -4.4224389    6.2047894    2.9115828 
 1920000   0.80789983  -0.14279809    1.7929984    1.1405225   -4.4084731    6.2014715     2.933521 
 1930000   0.80203587  -0.16933821     1.790871    1.1322443   -4.4144205    6.2052915    2.9231153 
 1940000   0.79889114  -0.12228438    1.7871263    1.1278048   -4.4164456    6.2035719    2.9149311 
 1950000   0.79593625  -0.15152539    1.7889975    1.1236334   -4.4176376    6.2066352    2.9126309 
 1960000   0.79900049  -0.13642229    1.7970162    1.1279592   -4.4076995    6.2047157    2.9249754 
 1970000   0.79974538  -0.16664989    1.7994425    1.1290108   -4.4049502    6.2043926    2.9284532 
 1980000   0.79362336  -0.15196315     1.786568    1.1203683   -4.4159976    6.2025656    2.9069362 
 1990000   0.80318874 -0.090768615    1.7861014    1.1338718   -4.4181077     6.204209    2.9199732 
 2000000   0.80692586  -0.14004735    1.7868581    1.1391476   -4.4134478    6.2003059    2.9260057 
 2010000   0.80192334  -0.16618051    1.8011416    1.1320854   -4.4042233    6.2053648     2.933227 
 2020000   0.79786642  -0.14894531    1.8039338    1.1263582   -4.4042448    6.2081786     2.930292 
 2030000   0.80864981  -0.10451983    1.7916179    1.1415813   -4.4135814    6.2051993    2.9331992 
 2040000   0.79219718  -0.15619412    1.7910317    1.1183549   -4.4137663    6.2047981    2.9093866 
 2050000   0.80156789   -0.1464292    1.8020163    1.1315837   -4.4004733    6.2024895    2.9335999 
 2060000   0.80485427  -0.14978431    1.7967928    1.1362231   -4.4047776    6.2015704    2.9330158 
 2070000   0.79715074   -0.1017851    1.7843461    1.1253479   -4.4183787    6.2027248     2.909694 
 2080000   0.80136102  -0.10501251    1.8039236    1.1312916   -4.4018991    6.2058227    2.9352152 
 2090000   0.79577837  -0.10898114    1.8115631    1.1234105   -4.3911754    6.2027385    2.9349737 
 2100000   0.79799977  -0.13796668    1.8048133    1.1265465   -4.3985335    6.2033468    2.9313598 
 2110000    0.7992292  -0.10338735    1.8043802    1.1282821   -4.3976256    6.2020058    2.9326623 
 2120000    0.7990846  -0.14491954    1.7976831     1.128078   -4.4099076    6.2075907     2.925761 
 2130000   0.79550514  -0.15437391    1.7986122    1.1230248    -4.405525    6.2041372     2.921637 
 2140000   0.80363453  -0.16035864    1.8096116    1.1345012   -4.3961592    6.2057707    2.9441127 
 2150000   0.79431468  -0.14499294    1.7995446    1.1213442   -4.4042281    6.2037727    2.9208888 
 2160000   0.79750256 -0.077603671    1.7870547    1.1258446    -4.419294    6.2063487    2.9128993 
 2170000   0.80199435  -0.09252169    1.7905541    1.1321857   -4.4128644    6.2034185    2.9227398 
 2180000    0.7981188  -0.13128118     1.789285    1.1267145   -4.4129186    6.2022036    2.9159995 
 2190000   0.79908356  -0.10259248    1.7908765    1.1280765   -4.4126752    6.2035516    2.9189529 
 2200000   0.80067733    -0.127906    1.7883557    1.1303264   -4.4147992    6.2031549    2.9186821 
 2210000   0.80174801   -0.1234995    1.7777169    1.1318379   -4.4247714    6.2024883    2.9095548 
 2220000   0.79940575  -0.11209438    1.7928876    1.1285313   -4.4094976    6.2023852     2.921419 
 2230000   0.80682719  -0.10849219    1.7824985    1.1390083   -4.4185058    6.2010043    2.9215068 
 2240000    0.8009341  -0.23313219    1.7925443    1.1306889   -4.4089533    6.2014976    2.9232333 
 2250000   0.79925414 -0.038173161      1.79285    1.1283173   -4.4104056    6.2032556    2.9211673 
 2260000    0.8083181  -0.11398072    1.7790549     1.141113   -4.4227886    6.2018435    2.9201679 
 2270000   0.80002798   -0.1791687     1.805405    1.1294097   -4.3972991    6.2027041    2.9348147 
 2280000   0.80577698 -0.034234354    1.7909509    1.1375257   -4.4123622    6.2033132    2.9284766 
 2290000   0.79832459   -0.1184003    1.7996002    1.1270051   -4.4049992    6.2045994    2.9266053 
 2300000   0.80286282  -0.16000671    1.7951746    1.1334117   -4.4111147    6.2062893    2.9285863 
 2310000   0.79463477  -0.15117758      1.80906    1.1217961   -4.3951492    6.2042092    2.9308561 
 2320000   0.80441321  -0.10637083    1.7884198    1.1356004   -4.4165869    6.2050067    2.9240202 
 2330000   0.80731755 -0.098864551    1.7827639    1.1397005   -4.4186187    6.2013825    2.9224644 
 2340000   0.80280161  -0.14911348    1.8017583    1.1333253   -4.4011342    6.2028925    2.9350836 
 2350000   0.79917366   -0.1203942    1.7998563    1.1282037   -4.4064061    6.2062623      2.92806 
 2360000   0.79682025  -0.17178246    1.7981914    1.1248813   -4.4078518    6.2060432    2.9230727 
 2370000   0.79856553  -0.22289772    1.8018252    1.1273452    -4.400453    6.2022782    2.9291704 
 2380000   0.80266186  -0.16354901    1.7927076     1.133128   -4.4070325    6.1997401    2.9258356 
 2390000   0.79987195  -0.11328409    1.7964202    1.1291895   -4.4098199    6.2062401    2.9256097 
 2400000   0.80367409  -0.10489135    1.8022948     1.134557   -4.4036953    6.2059902    2.9368518 
 2410000   0.80214662  -0.17059276    1.7907322    1.1324006   -4.4114595    6.2021918    2.9231329 
 2420000   0.80594657   -0.1078898    1.7853857    1.1377651   -4.4234481    6.2088337    2.9231507 
 2430000   0.80066468  -0.12319995    1.7938027    1.1303086   -4.4076407    6.2014434    2.9241112 
 2440000   0.79773602   -0.1599655    1.7976803    1.1261742   -4.4046237     6.202304    2.9238545 
 2450000   0.80143616  -0.15733619    1.7979389    1.1313977   -4.4045748    6.2025138    2.9293366 
 2460000    0.8029268  -0.14007624    1.7939884     1.133502    -4.410073    6.2040614    2.9274905 
 2470000   0.79946554  -0.16261969    1.7982923    1.1286157   -4.4076226    6.2059149     2.926908 
 2480000    0.7982017 -0.041825449    1.8020551    1.1268316    -4.401006     6.203061    2.9288866 
 2490000   0.80010463 -0.074345858    1.7886808    1.1295179   -4.4140344    6.2027152    2.9181987 
 2500000   0.79844001  -0.12396473     1.804501     1.127168   -4.3991713    6.2036723     2.931669 
 2510000   0.79792993  -0.12444794    1.7863581    1.1264479    -4.416789    6.2031471     2.912806 
 2520000    0.8024952 -0.016780344    1.7900209    1.1328927   -4.4110077    6.2010286    2.9229137 
 2530000   0.79713358   -0.1672786    1.8053382    1.1253237   -4.3994791    6.2048174    2.9306619 
 2540000    0.7930161 -0.043259248    1.8002885     1.119511   -4.4042102    6.2044987    2.9197995 
 2550000   0.80331799  -0.10425916    1.7978972    1.1340543   -4.4050642    6.2029614    2.9319515 
 2560000   0.80224374 -0.074550732    1.7880534    1.1325378   -4.4164228    6.2044762    2.9205911 
 2570000   0.80408979 -0.067862979    1.7924167    1.1351438   -4.4113076    6.2037242    2.9275605 
 2580000   0.79856337  -0.17437781    1.8034324    1.1273421   -4.4004325    6.2038649    2.9307746 
 2590000   0.79751431 -0.088760289    1.7936672    1.1258612   -4.4103376    6.2040049    2.9195284 
 2600000   0.80066737 -0.069141345    1.7942668    1.1303124    -4.406994    6.2012608    2.9245792 
 2610000   0.80520006  -0.15230831    1.7806812    1.1367112   -4.4230992    6.2037804    2.9173925 
 2620000   0.80839371  -0.12178962     1.789466    1.1412198   -4.4115912    6.2010572    2.9306858 
 2630000   0.79903539  -0.11820002    1.8080088    1.1280085   -4.3976253    6.2056342    2.9360173 
 2640000   0.79879275  -0.14714984    1.7837898     1.127666   -4.4172725    6.2010622    2.9114557 
 2650000   0.79801677  -0.13227237    1.8081989    1.1265705   -4.3950845    6.2032834    2.9347694 
 2660000   0.80258498  -0.12868311    1.7992912    1.1330195   -4.4040377    6.2033289    2.9323107 
 2670000   0.79807148  -0.14974719    1.8037287    1.1266477   -4.3994748    6.2032035    2.9303764 
 2680000   0.79852701  -0.13850797    1.8015704    1.1272908   -4.4055213    6.2070917    2.9288612 
 2690000   0.80110048  -0.13447095    1.7788553    1.1309238   -4.4242588    6.2031141    2.9097791 
 2700000   0.80303231  -0.15085905     1.793686     1.133651    -4.410595    6.2042811     2.927337 
 2710000   0.80099924   -0.1723562    1.7968425    1.1307809   -4.4048566    6.2016991    2.9276234 
 2720000   0.80185199  -0.17407604    1.7833857    1.1319847   -4.4184399    6.2018256    2.9153705 
 2730000   0.79799732  -0.10141577    1.7875258     1.126543   -4.4151901    6.2027159    2.9140689 
 2740000   0.80490053  -0.16025767    1.7916504    1.1362884   -4.4108367    6.2024871    2.9279388 
 2750000   0.79292382  -0.19979892    1.8023578    1.1193807   -4.4011174    6.2034751    2.9217385 
 2760000   0.80165812  -0.14653539    1.7893804     1.131711   -4.4141663    6.2035467    2.9210914 
 2770000   0.79360249 -0.083775864    1.7938357    1.1203388   -4.4095985    6.2034342    2.9141745 
 2780000   0.80488576   -0.1288634    1.7966721    1.1362675   -4.4061123    6.2027844    2.9329396 
 2790000   0.80656995  -0.12902029    1.7768825    1.1386451   -4.4235341    6.2004166    2.9155276 
 2800000   0.79927186  -0.10982583    1.7877457    1.1283423   -4.4148074    6.2025531     2.916088 
 2810000   0.79536732  -0.10286744    1.8002905    1.1228302   -4.4050549    6.2053454    2.9231208 
 2820000   0.80275776  -0.12378658    1.8002502    1.1332634   -4.4050226    6.2052728    2.9335136 
 2830000   0.80332186  -0.12905847    1.7986142    1.1340598   -4.4053221    6.2039363     2.932674 
 2840000   0.79761751  -0.10084014       1.7976    1.1260068   -4.4009365    6.1985365    2.9236068 
 2850000   0.80036424  -0.12968787    1.8033193    1.1298844   -4.3973355    6.2006548    2.9332038 
 2860000   0.79719151 -0.083439369    1.7864147    1.1254055   -4.4170403     6.203455    2.9118202 
 2870000   0.80237579  -0.16872528     1.803745    1.1327242   -4.4013203    6.2050653    2.9364691 
 2880000   0.79610052  -0.11388411    1.8008199    1.1238653   -4.4009885    6.2018084    2.9246852 
 2890000   0.80373911 -0.073315202    1.8019951    1.1346488   -4.4053499     6.207345    2.9366439 
 2900000   0.80111674  -0.11201427    1.7989317    1.1309468    -4.407649    6.2065807    2.9298784 
 2910000    0.7921324  -0.07304878    1.8024398    1.1182634    -4.402233    6.2046728    2.9207033 
 2920000   0.79413308  -0.15542601    1.7841417    1.1210878   -4.4209283    6.2050699    2.9052295 
 2930000   0.80130355  -0.19013861     1.802356    1.1312105   -4.4007775    6.2031336    2.9335665 
 2940000   0.80001581  -0.09029312    1.7898185    1.1293926   -4.4130452    6.2028637     2.919211 
 2950000    0.8015778  -0.12444485    1.7913637    1.1315976   -4.4097352    6.2010989    2.9229614 
 2960000   0.80045132  -0.12278376    1.7886823    1.1300074   -4.4150125    6.2036948    2.9186897 
 2970000   0.79876727 -0.093658439    1.7915592      1.12763    -4.410991    6.2025502    2.9191892 
 2980000   0.80195324  -0.18340976    1.7991729    1.1321277   -4.4045433    6.2037162    2.9313005 
 2990000   0.79627761  -0.11322692    1.7978879    1.1241153   -4.4085405    6.2064283    2.9220032 
 3000000    0.8030283  -0.12224431    1.8051777    1.1336453   -4.4003071    6.2054849    2.9388231 
 3010000   0.79954951  -0.12925789    1.7783679    1.1287343   -4.4248056    6.2031736    2.9071022 
 3020000   0.80202581  -0.14894838    1.7936802    1.1322301   -4.4099318     6.203612    2.9259103 
 3030000   0.80169475 -0.093513344    1.7840057    1.1317627     -4.41748    6.2014856    2.9157684 
 3040000   0.79471541  -0.10114718    1.7828832    1.1219099   -4.4197148     6.202598    2.9047931 
 3050000    0.8013921 -0.099769626    1.7838688    1.1313355   -4.4175095    6.2013783    2.9152042 
 3060000   0.79940965   -0.1228923    1.7836916    1.1285368   -4.4147074     6.198399    2.9122284 
 3070000   0.81090504  -0.22031962    1.8032608     1.144765   -4.4010112     6.204272    2.9480258 
 3080000   0.79833594  -0.12883037    1.7928108    1.1270211   -4.4114947    6.2043056    2.9198319 
 3090000   0.79190812  -0.13363236    1.7938917    1.1179468   -4.4099597    6.2038515    2.9118386 
 3100000   0.80491314  -0.12084317    1.7913015    1.1363062   -4.4113585    6.2026599    2.9276077 
 3110000   0.79576663  -0.12182424    1.7824377    1.1233939   -4.4195597    6.2019974    2.9058317 
 3120000   0.80284599 -0.074296633    1.7896817     1.133388   -4.4151077    6.2047894    2.9230696 
 3130000   0.80514919 -0.099635327    1.7711041    1.1366394   -4.4280145    6.1991187    2.9077436 
 3140000   0.80149353  -0.15859292    1.8025733    1.1314787   -4.4003161    6.2028894     2.934052 
 3150000   0.80081486  -0.16321739    1.7886236    1.1305206   -4.4165614     6.205185    2.9191442 
 3160000   0.79359502  -0.18962754    1.7988211    1.1203282   -4.4082639     6.207085    2.9191494 
 3170000   0.79784961  -0.11891559    1.7863483    1.1263345   -4.4148599    6.2012082    2.9126828 
 3180000   0.80121266 -0.066114463    1.7813052    1.1310822   -4.4215361    6.2028413    2.9123874 
 3190000   0.79491942  -0.18301927    1.7941269    1.1221979   -4.4092156    6.2033424    2.9163248 
 3200000   0.80688843  -0.11083221    1.7906088    1.1390947   -4.4150521    6.2056609    2.9297035 
 3210000   0.80481752   -0.1343826    1.7737109    1.1361712   -4.4304265    6.2041374    2.9098821 
 3220000   0.79952048  -0.15363845    1.7757684    1.1286933   -4.4302894    6.2060578    2.9044617 
 3230000   0.80555038  -0.13352555    1.7969405    1.1372058   -4.4064432    6.2033837    2.9341463 
 3240000   0.79673622  -0.16155545    1.7753356    1.1247627   -4.4267956    6.2021312    2.9000984 
 3250000   0.79854634  -0.14191927    1.7817806    1.1273181   -4.4211471    6.2029277    2.9090987 
 3260000   0.79958773  -0.12195156    1.7933397    1.1287882   -4.4101417    6.2034814     2.922128 
 3270000   0.80309031  -0.14654396     1.783668    1.1337329   -4.4194836    6.2031515    2.9174008 
 3280000   0.79375757  -0.13962933    1.7916042    1.1205577    -4.410894    6.2024982     2.912162 
 3290000   0.80005031 -0.094831082    1.7752909    1.1294413   -4.4305451    6.2058359    2.9047321 
 3300000   0.79713025  -0.14528513    1.7993316     1.125319   -4.4080467    6.2073783    2.9246505 
 3310000   0.79585954  -0.11117554    1.8065639    1.1235251   -4.4012483    6.2078122     2.930089 
 3320000   0.79507804  -0.14075275    1.7869082    1.1224218   -4.4157379    6.2026461      2.90933 
 3330000   0.80182266  -0.14254783    1.8086089    1.1319433   -4.3964474    6.2050564    2.9405522 
 3340000   0.80382785  -0.19899204    1.7903703    1.1347741   -4.4087244    6.1990947    2.9251443 
 3350000   0.79385262 -0.077025554     1.767689    1.1206919   -4.4343882    6.2020773     2.888381 
 3360000   0.80063221  -0.17269428    1.8009982    1.1302627   -4.4038723    6.2048705    2.9312609 
 3370000   0.80578369  -0.12977698    1.7935967    1.1375351   -4.4092594    6.2028561    2.9311318 
 3380000   0.80170263  -0.16385397    1.7943443    1.1317739   -4.4081384    6.2024826    2.9261181 
 3390000   0.79438881  -0.10496435    1.7969572    1.1214489   -4.4059114    6.2028686    2.9184061 
 3400000   0.79924912  -0.13850085    1.7988314    1.1283102   -4.4063472    6.2051786    2.9271417 
 3410000   0.80552381  -0.13799949    1.7949212    1.1371683   -4.4081502    6.2030713    2.9320894 
 3420000   0.80596611 -0.065646057    1.7757776    1.1377927   -4.4236542    6.1994318    2.9135703 
 3430000   0.79899006  -0.18970749    1.7732911    1.1279445   -4.4276813    6.2009724    2.9012356 
 3440000   0.80418642  -0.16637229      1.79903    1.1352803   -4.4069637    6.2059937    2.9343102 
 3450000   0.80020877  -0.13686848    1.7809444     1.129665   -4.4206075    6.2015519    2.9106094 
 3460000   0.80079715  -0.10802574    1.7928016    1.1304956   -4.4113172    6.2041187    2.9232971 
 3470000   0.79694053  -0.22430961    1.8079574    1.1250512   -4.3942612    6.2022186    2.9330085 
 3480000   0.80107035  -0.16956254    1.7944794    1.1308813   -4.4092795    6.2037589    2.9253607 
 3490000   0.80111463  -0.12856352    1.7797307    1.1309438   -4.4195018    6.1992325    2.9106745 
 3500000   0.79975657  -0.15652278    1.7939868    1.1290266   -4.4133299    6.2073168    2.9230134 
 3510000   0.80468841  -0.08161256    1.7988042    1.1359889   -4.4050493    6.2038535    2.9347932 
 3520000   0.80117848  -0.19652662    1.8015824    1.1310339   -4.3987713    6.2003537    2.9326163 
 3530000   0.80005139  -0.14271553    1.7961492    1.1294428   -4.4060429    6.2021921     2.925592 
 3540000   0.79877467  -0.14836745    1.8031833    1.1276404    -4.400794    6.2039773    2.9308237 
 3550000   0.80142346   -0.1289152    1.7915709    1.1313798   -4.4127722    6.2043431    2.9229506 
 3560000   0.79640563  -0.11695865    1.7815144     1.124296   -4.4209286     6.202443    2.9058105 
 3570000   0.80388172  -0.16061021    1.7963848    1.1348501    -4.407896    6.2042808    2.9312349 
 3580000   0.79580734  -0.10723948    1.7856581    1.1234514   -4.4174724    6.2031305    2.9091095 
 3590000   0.80602771   -0.1496091    1.7987145    1.1378796   -4.4044989    6.2032134    2.9365941 
 3600000   0.80798277  -0.12810664    1.7884385    1.1406396   -4.4133561    6.2017946    2.9290781 
 3610000   0.79588206   -0.1355217    1.8066823    1.1235569   -4.3949382    6.2016205    2.9302391 
 3620000   0.80867537 -0.066179908    1.7804425    1.1416174   -4.4186328    6.1990753    2.9220598 
 3630000    0.7984816  -0.15108653    1.7899464    1.1272267   -4.4151873    6.2051337    2.9171731 
 3640000   0.79892619  -0.12272657    1.7990119    1.1278543   -4.4070037    6.2060155    2.9268662 
 3650000   0.80664873  -0.10635861    1.7870587    1.1387563   -4.4180919    6.2051506     2.925815 
 3660000   0.79404921  -0.19695445    1.7857377    1.1209694   -4.4157127    6.2014504    2.9067072 
 3670000   0.79762683  -0.13715696    1.7911989      1.12602   -4.4154883    6.2066872    2.9172189 
 3680000   0.79914521     -0.05256    1.7943878    1.1281635   -4.4092319    6.2036197    2.9225513 
 3690000   0.80468448  -0.12196457    1.7970986    1.1359834   -4.4078404     6.204939     2.933082 
 3700000   0.79539219  -0.13975355    1.7970675    1.1228653   -4.4047557    6.2018232    2.9199328 
 3710000   0.79989898   -0.2609299    1.7787214    1.1292276   -4.4232088    6.2019302     2.907949 
 3720000   0.80796408  -0.16643698    1.7813147    1.1406132   -4.4194819    6.2007966    2.9219279 
 3730000   0.80385276  -0.13760315    1.7992775    1.1348092   -4.4069576     6.206235    2.9340867 
 3740000   0.80211609  -0.14612592    1.7906925    1.1323576    -4.411365    6.2020575      2.92305 
 3750000   0.80107871  -0.10996913    1.7955651    1.1308931   -4.4047089     6.200274    2.9264582 
 3760000     0.799894    -0.119913    1.7973438    1.1292206   -4.4033729    6.2007167    2.9265644 
 3770000   0.79381038  -0.16529848    1.8097957    1.1206323   -4.3964028    6.2061985     2.930428 
 3780000   0.80433808 -0.079446155    1.7941875    1.1354944   -4.4084363    6.2026238    2.9296818 
 3790000   0.79999567  -0.14618728    1.7915323    1.1293641   -4.4093105    6.2008428    2.9208965 
 3800000   0.79799106  -0.13330778    1.7924171    1.1265342    -4.411304    6.2037212    2.9189513 
 3810000   0.79660764  -0.14020061    1.8028992    1.1245812   -4.4011855    6.2040847    2.9274804 
 3820000   0.80098411  -0.18551779    1.8001042    1.1307595   -4.4005079    6.2006121    2.9308637 
 3830000   0.80194531  -0.17208444     1.796706    1.1321165   -4.4050722    6.2017782    2.9288224 
 3840000   0.80213137  -0.16942137    1.7926347    1.1323791   -4.4085272    6.2011619    2.9250139 
 3850000   0.80009162 -0.081164984    1.7944183    1.1294996   -4.4100826    6.2045009    2.9239178 
 3860000   0.80455947  -0.10240792    1.8007369    1.1358069   -4.4049089    6.2056458    2.9365438 
 3870000   0.79700346  -0.15548611    1.7937883      1.12514   -4.4095787     6.203367    2.9189282 
 3880000   0.80067647 -0.048089262     1.798512    1.1303252   -4.4036809     6.202193    2.9288373 
 3890000   0.80092013  -0.11258165    1.7968257    1.1306692   -4.4097041    6.2065298    2.9274949 
 3900000   0.80285723  -0.11213791    1.7902087    1.1334038   -4.4140161    6.2042249    2.9236126 
 3910000   0.80631842 -0.074383151    1.7898615      1.13829   -4.4109181    6.2007795    2.9281515 
 3920000    0.8076587 -0.075095885    1.7875194    1.1401821   -4.4161055    6.2036249    2.9277016 
 3930000   0.80343297  -0.12349934    1.7925772    1.1342166   -4.4136926    6.2062698    2.9267938 
 3940000    0.8062113  -0.11239864    1.8016734    1.1381388   -4.4015249    6.2031983    2.9398122 
 3950000    0.7924246  -0.11564885    1.7926219     1.118676   -4.4129534    6.2055753    2.9112978 
 3960000   0.79574182  -0.11498458    1.7946607    1.1233589   -4.4103636    6.2050243    2.9180196 
 3970000   0.81052845  -0.14315197    1.7960769    1.1442334   -4.4103597    6.2064366    2.9403103 
 3980000   0.79969777  -0.14153512    1.8085925    1.1289436   -4.3952054    6.2037979    2.9375361 
 3990000   0.80296264 -0.050642739    1.7970069    1.1335526   -4.4058416    6.2028485    2.9305595 
 4000000   0.79435622  -0.14787429    1.8057359    1.1214029   -4.3955854    6.2013213    2.9271388 
 4010000    0.7883114  -0.13327347    1.7855604    1.1128693    -4.416994    6.2025543    2.8984297 
 4020000   0.80150609  -0.12949856    1.7950816    1.1314964   -4.4079196    6.2030012     2.926578 
 4030000   0.80120834 -0.081955413    1.7901421    1.1310761   -4.4131246    6.2032667    2.9212182 
 4040000   0.80506842  -0.11389592    1.7984733    1.1365254   -4.4065763    6.2050496    2.9349986 
 4050000   0.79844458   -0.1096439    1.7934708    1.1271744   -4.4059423     6.199413    2.9206452 
 4060000    0.7991695  -0.16907237    1.7794779    1.1281978   -4.4210279    6.2005058    2.9076757 
 4070000   0.80172561  -0.14668778    1.7920174    1.1318063   -4.4069396     6.198957    2.9238238 
 4080000   0.80037411 -0.084915764    1.7890611    1.1298984   -4.4142803    6.2033414    2.9189595 
 4090000    0.7974892  -0.04719592     1.781135    1.1258257   -4.4233886    6.2045235    2.9069607 
 4100000   0.80484756  -0.16578694    1.7885173    1.1362136   -4.4120178     6.200535    2.9247309 
 4110000    0.7996202  -0.13479225    1.8098598    1.1288341    -4.393664    6.2035238    2.9386939 
 4120000   0.79948079  -0.14798493     1.790817    1.1286373   -4.4127599    6.2035769    2.9194542 
 4130000   0.80104574  -0.13862699    1.7961818    1.1308465   -4.4058635    6.2020453    2.9270283 
 4140000   0.79465338  -0.15302888    1.7905158    1.1218223   -4.4123178    6.2028336    2.9123381 
 4150000    0.8026637 -0.080683632    1.7931526    1.1331306    -4.409417    6.2025696    2.9262832 
 4160000   0.80174837  -0.16391333    1.8003463    1.1318384   -4.4020611    6.2024074    2.9321847 
 4170000   0.80106713 -0.078807609    1.8003888    1.1308767   -4.4047248    6.2051135    2.9312655 
 4180000   0.80299142  -0.14995382    1.7923741    1.1335933   -4.4094156    6.2017896    2.9259674 
 4190000   0.79897571  -0.17916776    1.8054108    1.1279242   -4.3986063    6.2040172    2.9333351 
 4200000   0.79955925  -0.14942067    1.7921585     1.128748   -4.4119418    6.2041003    2.9209065 
 4210000   0.80125006 -0.071185242    1.7895292     1.131135   -4.4155816    6.2051108    2.9206642 
 4220000   0.80746683  -0.18555443    1.7752805    1.1399113   -4.4252985     6.200579    2.9151918 
 4230000   0.80065753  -0.11562114    1.7897828    1.1302985   -4.4089422     6.198725    2.9200813 
 4240000   0.79895984  -0.16281885    1.7966367    1.1279018   -4.4065848    6.2032215    2.9245385 
 4250000   0.80050165  -0.12285397    1.7977444    1.1300784   -4.4073497    6.2050941    2.9278229 
 4260000   0.80077952  -0.22314712    1.7989594    1.1304707   -4.4065327    6.2054922    2.9294301 
 4270000    0.8022207  -0.16291137    1.7888163    1.1325052   -4.4130921    6.2019084    2.9213215 
 4280000   0.79770323  -0.12720803    1.7933493    1.1261279   -4.4085012    6.2018505    2.9194771 
 4290000   0.79711816 -0.099024711    1.8089909    1.1253019   -4.3944422    6.2034331    2.9342928 
 4300000   0.79975042  -0.15485032    1.7845847    1.1290179   -4.4170494    6.2016341    2.9136026 
 4310000   0.79645472  -0.19934101     1.787762    1.1243653   -4.4116813    6.1994434    2.9121274 
 4320000   0.79809941  -0.15519377    1.7911818    1.1266872   -4.4159701    6.2071519     2.917869 
 4330000   0.80425561  -0.11722288    1.8118678    1.1353779   -4.3949669    6.2068347    2.9472457 
 4340000   0.79731019  -0.20298731    1.7833033     1.125573   -4.4183882    6.2016915    2.9088763 
 4350000   0.79997423  -0.11481873    1.7924701    1.1293339   -4.4074255    6.1998957     2.921804 
 4360000   0.80018613  -0.17337129    1.7946793     1.129633   -4.4102688     6.204948    2.9243123 
 4370000   0.79729448  -0.17573792    1.8042229    1.1255508   -4.3978263    6.2020492    2.9297737 
 4380000   0.79766089 -0.080068138    1.7894094    1.1260681    -4.412008    6.2014174    2.9154775 
 4390000    0.8033058 -0.086722649    1.7893479    1.1340371   -4.4126533    6.2020012     2.923385 
 4400000   0.80420032   -0.1287593    1.8029509    1.1352999   -4.4007962    6.2037471    2.9382508 
 4410000   0.80095184 -0.056224499    1.7874975     1.130714   -4.4152701    6.2027676    2.9182115 
 4420000   0.79585529  -0.15950908    1.7920229    1.1235191   -4.4103279    6.2023509    2.9155421 
 4430000    0.8027976 -0.032807183    1.8043729    1.1333197   -4.4004238    6.2047967    2.9376926 
 4440000   0.79338167  -0.10713176    1.8002296    1.1200271   -4.4029605    6.2031901    2.9202567 
 4450000   0.79637796  -0.11323963    1.7975284     1.124257   -4.4051484    6.2026769    2.9217854 
 4460000   0.81011309 -0.074490877    1.7977594     1.143647   -4.4048358    6.2025952    2.9414064 
 4470000   0.79954931  -0.06367985    1.7948614     1.128734   -4.4077321    6.2025935    2.9235954 
 4480000   0.79679726  -0.15138062    1.7960577    1.1248489   -4.4056407    6.2016984    2.9209066 
 4490000   0.80450431 -0.051562773    1.7985408     1.135729   -4.4061611    6.2047019    2.9342698 
 4500000   0.79962685  -0.10467746    1.7804092    1.1288435   -4.4254226    6.2058318    2.9092527 
 4510000   0.80659344  -0.19328968    1.7967072    1.1386783   -4.4068614    6.2035686    2.9353855 
 4520000   0.79670633  -0.13314288    1.7887673    1.1247205   -4.4116003    6.2003676    2.9134878 
 4530000   0.80603778  -0.10039642    1.7828127    1.1378939   -4.4198671    6.2026797    2.9207065 
 4540000   0.80169575  -0.11240109    1.8077629    1.1317642   -4.3958492    6.2036122    2.9395271 
 4550000   0.80083172  -0.08101849    1.7849488    1.1305444   -4.4189109    6.2038598    2.9154932 
 4560000   0.79596451  -0.15207176    1.7787388    1.1236733   -4.4233017    6.2020405    2.9024121 
 4570000   0.79845653  -0.12193056     1.786164    1.1271913   -4.4128987    6.1990627    2.9133553 
 4580000   0.79835181  -0.10008136    1.7797597    1.1270435   -4.4255229    6.2052826    2.9068032 
 4590000   0.79763588  -0.13355625    1.7838304    1.1260328   -4.4176924    6.2015228    2.9098632 
 4600000   0.79498299 -0.078324043    1.7985723    1.1222877   -4.4038249    6.2023972      2.92086 
 4610000   0.80321248  -0.13990923    1.8068109    1.1339053   -4.3990354    6.2058463    2.9407163 
 4620000   0.80433568  -0.13601881    1.8014168     1.135491   -4.4009533    6.2023701    2.9369078 
 4630000    0.7974768  -0.15432169    1.7962514    1.1258082   -4.4113919    6.2076433    2.9220596 
 4640000   0.79253602  -0.11701569    1.7960269    1.1188332    -4.404333    6.2003599    2.9148601 
 4650000   0.80493701 -0.086618724    1.7952607    1.1363399   -4.4092205    6.2044812    2.9316006 
 4660000   0.80391611  -0.15413552    1.7884225    1.1348987    -4.414773    6.2031955    2.9233212 
 4670000   0.79074213 -0.093509747    1.8023866    1.1163008   -4.3992434      6.20163    2.9186874 
 4680000   0.79884693  -0.14361926    1.8010973    1.1277424   -4.4010033    6.2021006    2.9288398 
 4690000   0.79763198  -0.18244371     1.796473    1.1260273   -4.4085325    6.2050054    2.9225003 
 4700000   0.79907654  -0.14724749    1.7881865    1.1280666   -4.4127212    6.2009077    2.9162531 
 4710000   0.80355197  -0.14550575    1.7994702    1.1343846   -4.4029951    6.2024653    2.9338548 
 4720000   0.80341754  -0.15221991       1.7916    1.1341948   -4.4116198    6.2032199    2.9257948 
 4730000   0.80365367   -0.1782021    1.7770427    1.1345282   -4.4279024    6.2049451    2.9115709 
 4740000   0.79882851  -0.10156433    1.7854518    1.1277164   -4.4176578    6.2031096    2.9131683 
 4750000   0.79859621  -0.13880256    1.7968219    1.1273885   -4.4077845    6.2046064    2.9242104 
 4760000   0.79524938  -0.14395608    1.7843631    1.1226637   -4.4169793    6.2013424    2.9070268 
 4770000   0.79823287  -0.12978331    1.7942223    1.1268756   -4.4076968    6.2019191    2.9210978 
 4780000   0.79864892  -0.10881801    1.7876903    1.1274629   -4.4156385    6.2033288    2.9151532 
 4790000   0.79681978  -0.14886192    1.7917313    1.1248807   -4.4104254    6.2021567     2.916612 
 4800000   0.79973775  -0.10987426    1.7873443        1.129   -4.4139514    6.2012957    2.9163443 
 4810000   0.79874187  -0.13350843    1.7937316    1.1275941   -4.4110447    6.2047764    2.9213258 
 4820000   0.80383185  -0.12159933    1.7998491    1.1347797   -4.4042294    6.2040785    2.9346288 
 4830000   0.80733306  -0.12322056    1.7933501    1.1397224   -4.4111945    6.2045446    2.9330725 
 4840000   0.79860397  -0.12604817    1.7908616    1.1273994   -4.4132132    6.2040749    2.9182611 
 4850000   0.79315667  -0.21211169    1.7835609    1.1197094   -4.4212792      6.20484    2.9032703 
 4860000   0.80033878  -0.12324612     1.788303    1.1298485   -4.4156429    6.2039459    2.9181515 
 4870000   0.80197277  -0.17697645    1.7716866    1.1321552   -4.4310066    6.2026932    2.9038418 
 4880000   0.80162906   -0.1027128    1.7970726      1.13167   -4.4080133    6.2050859    2.9287426 
 4890000   0.80008348  -0.11627693    1.7880242    1.1294881   -4.4125991    6.2006233    2.9175123 
 4900000   0.80561509 -0.050263229    1.7920908    1.1372971   -4.4119626    6.2040534     2.929388 
 4910000   0.79380049  -0.12228859    1.8032822    1.1206183   -4.3993656    6.2026477    2.9239005 
 4920000   0.80034062 -0.097251081    1.7846984    1.1298511   -4.4190824    6.2037808    2.9145495 
 4930000    0.7992951  -0.16749559    1.7990629    1.1283751   -4.4027244    6.2017873     2.927438 
 4940000    0.7939132  -0.12067359    1.7932593    1.1207774    -4.409704    6.2029633    2.9140367 
 4950000   0.79812775  -0.15089789     1.795627    1.1267272   -4.4061319    6.2017589    2.9223542 
 4960000   0.80807327  -0.15442791    1.7820651    1.1407674   -4.4175151    6.1995801    2.9228324 
 4970000   0.79967919   -0.1029234    1.7893222    1.1289173   -4.4146506    6.2039727    2.9182395 
 4980000   0.80731066  -0.12771934    1.7894914    1.1396908   -4.4135899    6.2030813    2.9291822 
 4990000   0.79926327 -0.058288722    1.7928858    1.1283302   -4.4105751    6.2034609     2.921216 
 5000000   0.80091653  -0.16765112    1.7855584    1.1306641   -4.4161175    6.2016758    2.9162225 
 5010000   0.80343716  -0.15324755    1.8010256    1.1342225   -4.4054767    6.2065023    2.9352481 
 5020000   0.79507028  -0.14228043    1.7863047    1.1224109   -4.4187143     6.205019    2.9087156 
 5030000   0.79661898  -0.14246711     1.800861    1.1245972   -4.4034312    6.2042922    2.9254582 
 5040000   0.79434603  -0.10929403    1.8035415    1.1213885   -4.4012512    6.2047927      2.92493 
 5050000   0.80598422  -0.11328515    1.7995323    1.1378182    -4.405766    6.2052983    2.9373505 
 5060000   0.79893789  -0.11403384    1.7932829    1.1278708   -4.4104556    6.2037385    2.9211538 
 5070000   0.79163606  -0.18204968    1.7728505    1.1175628   -4.4298676    6.2027181    2.8904132 
 5080000   0.79864337  -0.13027067    1.7990059    1.1274551   -4.4029309    6.2019368     2.926461 
 5090000   0.80126702  -0.11321787    1.7867702    1.1311589   -4.4146652    6.2014354    2.9179291 
 5100000   0.79840078 -0.088106559    1.8060202    1.1271126   -4.3980567    6.2040769    2.9331328 
 5110000   0.80381419  -0.11353046    1.7952673    1.1347548   -4.4096002    6.2048675    2.9300221 
 5120000   0.80240736  -0.11792066    1.7940386    1.1327687   -4.4098192    6.2038578    2.9268073 
 5130000   0.79951037  -0.15824224    1.7909442     1.128679   -4.4148004    6.2057446    2.9196233 
 5140000   0.80427142 -0.036944747    1.7861313    1.1354003    -4.420622    6.2067533    2.9215316 
 5150000   0.79589078  -0.17303644     1.800795    1.1235692   -4.4038662    6.2046612    2.9243642 
 5160000   0.80123606  -0.19512375    1.7948828    1.1311152   -4.4086435    6.2035263     2.925998 
 5170000   0.79930576  -0.18866465    1.7925489    1.1283902   -4.4103632    6.2029122    2.9209391 
 5180000   0.79913259  -0.14012871    1.7889238    1.1281457   -4.4131314    6.2020552    2.9170695 
 5190000   0.79553023  -0.10756237    1.8037112    1.1230602   -4.3979652    6.2016764    2.9267714 
 5200000   0.80022425  -0.20873191    1.7814411    1.1296868   -4.4196442    6.2010853     2.911128 
 5210000   0.80468059  -0.10507732    1.7966804    1.1359779   -4.4063628    6.2030431    2.9326583 
 5220000   0.79903723 -0.084838146      1.79449    1.1280111   -4.4095917    6.2040817    2.9225011 
 5230000   0.79751932    -0.139862     1.783465    1.1258682   -4.4211723    6.2046374    2.9093333 
 5240000    0.8037637  -0.14045977    1.7802953    1.1346835   -4.4210705    6.2013658    2.9149788 
 5250000   0.80136865  -0.14524579    1.7977632    1.1313024    -4.404898    6.2026611    2.9290655 
 5260000   0.80214749  -0.15428021    1.7935646    1.1324019   -4.4067459    6.2003105    2.9259665 
 5270000   0.80427181  -0.15445873    1.7978777    1.1354008   -4.4051143     6.202992    2.9332785 
 5280000   0.79071301  -0.17174828    1.7950641    1.1162597   -4.4057378    6.2008019    2.9113238 
 5290000   0.79926836  -0.17424834    1.7904319    1.1283374   -4.4126898    6.2031216    2.9187692 
 5300000   0.80289568  -0.14979332    1.8046132    1.1334581   -4.3973831    6.2019962    2.9380713 
 5310000   0.79397858  -0.18502606    1.7970898    1.1208697   -4.4043305    6.2014203    2.9179595 
 5320000   0.80450918  -0.18849722    1.8020061    1.1357359    -4.401511    6.2035171     2.937742 
 5330000   0.79330726  -0.14344637    1.7914471     1.119922   -4.4129801    6.2044272    2.9113691 
 5340000   0.81106077  -0.14843656    1.8173069    1.1449849   -4.3868084    6.2041152    2.9622917 
 5350000   0.79954625  -0.16437801      1.79855    1.1287297   -4.4006931    6.1992431    2.9272796 
 5360000    0.8049667  -0.13825563    1.7958337    1.1363818   -4.4118328    6.2076665    2.9322155 
 5370000   0.79398333  -0.09227159    1.7802018    1.1208764   -4.4225804    6.2027822    2.9010783 
 5380000   0.79312925   -0.1630629    1.8000882    1.1196707    -4.401929    6.2020172    2.9197589 
 5390000    0.8004231  -0.16863749    1.7971601    1.1299675    -4.406152    6.2033121    2.9271276 
 5400000   0.80385907 -0.098077135     1.790342    1.1348181   -4.4129631    6.2033051    2.9251601 
 5410000    0.8048142   -0.1292531    1.7961649    1.1361665   -4.4048744    6.2010393    2.9323315 
 5420000   0.79699117  -0.14553925    1.7935644    1.1251226   -4.4054076     6.198972     2.918687 
 5430000    0.7970357  -0.15108649    1.7865986    1.1251855   -4.4122558    6.1988544    2.9117841 
 5440000   0.79321024  -0.12054862    1.8011679     1.119785   -4.4049792    6.2061471    2.9209529 
 5450000   0.79823666  -0.20170956    1.7819359    1.1268809   -4.4247999    6.2067358    2.9088169 
 5460000   0.80506975  -0.13540856     1.793932    1.1365273   -4.4084575    6.2023895    2.9304593 
 5470000   0.81101742 -0.073580798    1.8039675    1.1449237   -4.4005008    6.2044684    2.9488912 
 5480000   0.80169315 -0.085349489    1.8058438    1.1317605   -4.3973415    6.2031854    2.9376043 
 5490000   0.79980904  -0.12020193    1.7825407    1.1291007    -4.421295    6.2038357    2.9116414 
 5500000   0.80403387  -0.10253663    1.7895034    1.1350649   -4.4135798    6.2030832    2.9245683 
 5510000   0.79769795  -0.16867143    1.8048083    1.1261204   -4.3961259    6.2009342    2.9309287 
 5520000   0.80173528  -0.15221043    1.7996353      1.13182   -4.4031255    6.2027608    2.9314552 
 5530000   0.79899784  -0.14762728    1.7936168    1.1279555   -4.4112499    6.2048667    2.9215723 
 5540000   0.80123893  -0.15094038     1.787201    1.1311193   -4.4105804    6.1977814    2.9183203 
 5550000   0.79952219  -0.04063533    1.7926882    1.1286957   -4.4092361    6.2019244    2.9213839 
 5560000   0.80249747  -0.12872467    1.7978624    1.1328959   -4.4043283    6.2021907    2.9307584 
 5570000   0.80543632  -0.13210653    1.7997425    1.1370448   -4.4055003    6.2052428    2.9367873 
 5580000   0.80485336  -0.15894845    1.7956837    1.1362218   -4.4078139    6.2034976    2.9319055 
 5590000   0.79900825 -0.098866281    1.7886262    1.1279702   -4.4140575    6.2026837    2.9165963 
 5600000   0.79715177 -0.081138795    1.8169032    1.1253494   -4.3868096    6.2037128    2.9422526 
 5610000   0.80633646  -0.13376947    1.7916273    1.1383155   -4.4108971    6.2025243    2.9299428 
 5620000   0.79500378  -0.21538586    1.7932691     1.122317    -4.411343    6.2046122    2.9155861 
 5630000   0.79475105  -0.10649048    1.7940408    1.1219602   -4.4093403    6.2033811     2.916001 
 5640000   0.80202832  -0.20714275    1.7930649    1.1322336    -4.406546    6.1996109    2.9252986 
 5650000   0.80059182  -0.12347225    1.8040233    1.1302057   -4.4017123    6.2057356     2.934229 
 5660000   0.79398962  -0.15277385    1.8026443    1.1208853   -4.3983962    6.2010405    2.9235296 
 5670000   0.80503548  -0.12522467    1.7890791    1.1364789   -4.4133557    6.2024347    2.9255579 
 5680000   0.79872311 -0.093848941    1.7954972    1.1275676   -4.4068425    6.2023397    2.9230648 
 5690000    0.8037649  -0.11384244    1.7953397    1.1346852   -4.4110098    6.2063495    2.9300249 
 5700000   0.79913707  -0.12248615    1.7878651     1.128152    -4.417596    6.2054611    2.9160171 
 5710000     0.804609  -0.14510067      1.79046    1.1358768    -4.413376     6.203836    2.9263368 
 5720000   0.80017136  -0.18349932    1.7865601    1.1296122   -4.4165896    6.2031498    2.9161723 
 5730000   0.80045988  -0.07633593    1.7965749    1.1300195   -4.4064884    6.2030633    2.9265943 
 5740000   0.79668221  -0.15234481    1.8016904    1.1246865   -4.3996773    6.2013677    2.9263769 
 5750000   0.80126399  -0.20141174    1.7979736    1.1311546    -4.404005    6.2019786    2.9291283 
 5760000   0.79387481  -0.18792982    1.7969766    1.1207232   -4.4057796    6.2027562    2.9176998 
 5770000   0.79782985   -0.1449705    1.7910512    1.1263066   -4.4130604    6.2041116    2.9173578 
 5780000   0.80042943  -0.14715027    1.8043507    1.1299765   -4.3998364    6.2041871    2.9343272 
 5790000   0.81096371  -0.18986696    1.8011603    1.1448478   -4.4042926    6.2054529    2.9460082 
 5800000   0.80295511  -0.14246474    1.7981425     1.133542   -4.4072201    6.2053626    2.9316845 
 5810000   0.79502826  -0.10103352    1.8102989    1.1223516   -4.3938795    6.2041784    2.9326505 
 5820000   0.80214192  -0.10614415    1.7908197     1.132394   -4.4090507    6.1998703    2.9232137 
 5830000   0.79416464 -0.083660347     1.780697    1.1211324   -4.4213035    6.2020005    2.9018294 
 5840000   0.80333423 -0.056370188    1.7988564    1.1340772   -4.4079314    6.2067879    2.9329337 
 5850000   0.80409651  -0.17404079    1.7890758    1.1351533   -4.4162061     6.205282    2.9242292 
 5860000    0.8038385   -0.1530293    1.7885107    1.1347891   -4.4114608    6.1999714    2.9232998 
 5870000   0.80007749  -0.15147365    1.7792347    1.1294796   -4.4240951    6.2033298    2.9087144 
 5880000   0.79897301  -0.15794921    1.8030701    1.1279204   -4.4013657    6.2044358    2.9309905 
 5890000   0.80096989  -0.10527357     1.793422    1.1307395   -4.4091689    6.2025908    2.9241614 
 5900000   0.79928617   -0.1200569     1.808036    1.1283625   -4.3964282    6.2044642    2.9363985 
 5910000   0.80018432  -0.17408244    1.8029175    1.1296305   -4.3974029    6.2003204    2.9325479 
 5920000   0.79833872  -0.13365207       1.7838     1.127025    -4.419696     6.203496     2.910825 
 5930000   0.79998401  -0.18453945    1.8070728    1.1293477   -4.4003857    6.2074585    2.9364205 
 5940000   0.79541018  -0.20279359    1.7930254    1.1228907   -4.4097555     6.202781    2.9159162 
 5950000    0.7964729  -0.17028752    1.7943896     1.124391   -4.4085778    6.2029674    2.9187805 
 5960000   0.79398184   -0.1293772     1.789557    1.1208743   -4.4157975    6.2053545    2.9104313 
 5970000   0.79926554 -0.097449503    1.7903762    1.1283334   -4.4127708     6.203147    2.9187096 
 5980000   0.80072091   -0.1707431    1.7916808     1.130388   -4.4102303    6.2019111    2.9220688 
 5990000    0.8009282  -0.13663333    1.7996855    1.1306806   -4.4051313    6.2048167    2.9303661 
 6000000   0.79616899 -0.083415441    1.7839406     1.123962   -4.4164111    6.2003517    2.9079026 
Loop time of 64007.9 on 216 procs for 6000000 steps with 28900 atoms

Performance: 40495.014 tau/day, 93.738 timesteps/s
99.9% CPU use with 216 MPI tasks x 1 OpenMP threads

MPI task timing breakdown:
Section |  min time  |  avg time  |  max time  |%varavg| %total
---------------------------------------------------------------
Pair    | 669.23     | 884.68     | 1104.9     | 250.3 |  1.38
Bond    | 15.947     | 18.819     | 22.674     |  29.7 |  0.03
Kspace  | 57032      | 57234      | 57467      |  38.7 | 89.42
Neigh   | 722.74     | 754.46     | 793.1      |  58.5 |  1.18
Comm    | 1306.3     | 1538.5     | 1777.6     | 310.0 |  2.40
Output  | 2.6883     | 2.728      | 2.7386     |   0.3 |  0.00
Modify  | 2933       | 3080.2     | 3260.2     | 140.5 |  4.81
Other   |            | 494.6      |            |       |  0.77

Nlocal:    133.796 ave 190 max 4 min
Histogram: 4 1 1 2 4 8 67 101 22 6
Nghost:    973.648 ave 1151 max 383 min
Histogram: 4 0 4 1 7 10 13 47 108 22
Neighs:    5111.43 ave 8687 max 64 min
Histogram: 5 2 3 8 19 76 69 23 5 6

Total # of neighbors = 1104068
Ave neighs/atom = 38.203
Ave special neighs/atom = 0.602076
Neighbor list builds = 805937
Dangerous builds = 0
System init for write_restart ...
PPPM initialization ...
  using 12-bit tables for long-range coulomb (src/kspace.cpp:332)
  G vector (1/distance) = 1.17992
  grid = 100 100 100
  stencil order = 5
  estimated absolute RMS force accuracy = 0.000122379
  estimated relative force accuracy = 0.000122379
  using double precision FFTW3
  3d grid and FFT values/proc = 12167 5400
WARNING: Neighbor exclusions used with KSpace solver may give inconsistent Coulombic energies (src/neighbor.cpp:486)
Neighbor list info ...
  update every 1 steps, delay 0 steps, check yes
  max neighbors/atom: 2000, page size: 100000
  master list distance cutoff = 2.8
  ghost atom cutoff = 2.8
  binsize = 1.4, bins = 24 24 24
  12 neighbor lists, perpetual/occasional/extra = 2 10 0
  (1) pair lj/cut, perpetual
      attributes: half, newton on
      pair build: half/bin/newton
      stencil: half/bin/3d/newton
      bin: standard
  (2) pair coul/long, perpetual, skip from (1)
      attributes: half, newton on
      pair build: skip
      stencil: none
      bin: none
  (3) compute rdf, occasional, copy from (1)
      attributes: half, newton on
      pair build: copy
      stencil: none
      bin: none
  (4) compute rdf, occasional, copy from (1)
      attributes: half, newton on
      pair build: copy
      stencil: none
      bin: none
  (5) compute rdf, occasional, copy from (1)
      attributes: half, newton on
      pair build: copy
      stencil: none
      bin: none
  (6) compute rdf, occasional, copy from (1)
      attributes: half, newton on
      pair build: copy
      stencil: none
      bin: none
  (7) compute rdf, occasional, copy from (1)
      attributes: half, newton on
      pair build: copy
      stencil: none
      bin: none
  (8) compute rdf, occasional, copy from (1)
      attributes: half, newton on
      pair build: copy
      stencil: none
      bin: none
  (9) compute rdf, occasional, copy from (1)
      attributes: half, newton on
      pair build: copy
      stencil: none
      bin: none
  (10) compute rdf, occasional, copy from (1)
      attributes: half, newton on
      pair build: copy
      stencil: none
      bin: none
  (11) compute rdf, occasional, copy from (1)
      attributes: half, newton on
      pair build: copy
      stencil: none
      bin: none
  (12) compute rdf, occasional, copy from (1)
      attributes: half, newton on
      pair build: copy
      stencil: none
      bin: none
PPPM initialization ...
  using 12-bit tables for long-range coulomb (src/kspace.cpp:332)
  G vector (1/distance) = 1.17992
  grid = 100 100 100
  stencil order = 5
  estimated absolute RMS force accuracy = 0.000122379
  estimated relative force accuracy = 0.000122379
  using double precision FFTW3
  3d grid and FFT values/proc = 12167 5400
WARNING: Neighbor exclusions used with KSpace solver may give inconsistent Coulombic energies (src/neighbor.cpp:486)
Neighbor list info ...
  update every 1 steps, delay 0 steps, check yes
  max neighbors/atom: 2000, page size: 100000
  master list distance cutoff = 2.8
  ghost atom cutoff = 2.8
  binsize = 1.4, bins = 24 24 24
  12 neighbor lists, perpetual/occasional/extra = 2 10 0
  (1) pair lj/cut, perpetual
      attributes: half, newton on
      pair build: half/bin/newton
      stencil: half/bin/3d/newton
      bin: standard
  (2) pair coul/long, perpetual, skip from (1)
      attributes: half, newton on
      pair build: skip
      stencil: none
      bin: none
  (3) compute rdf, occasional, copy from (1)
      attributes: half, newton on
      pair build: copy
      stencil: none
      bin: none
  (4) compute rdf, occasional, copy from (1)
      attributes: half, newton on
      pair build: copy
      stencil: none
      bin: none
  (5) compute rdf, occasional, copy from (1)
      attributes: half, newton on
      pair build: copy
      stencil: none
      bin: none
  (6) compute rdf, occasional, copy from (1)
      attributes: half, newton on
      pair build: copy
      stencil: none
      bin: none
  (7) compute rdf, occasional, copy from (1)
      attributes: half, newton on
      pair build: copy
      stencil: none
      bin: none
  (8) compute rdf, occasional, copy from (1)
      attributes: half, newton on
      pair build: copy
      stencil: none
      bin: none
  (9) compute rdf, occasional, copy from (1)
      attributes: half, newton on
      pair build: copy
      stencil: none
      bin: none
  (10) compute rdf, occasional, copy from (1)
      attributes: half, newton on
      pair build: copy
      stencil: none
      bin: none
  (11) compute rdf, occasional, copy from (1)
      attributes: half, newton on
      pair build: copy
      stencil: none
      bin: none
  (12) compute rdf, occasional, copy from (1)
      attributes: half, newton on
      pair build: copy
      stencil: none
      bin: none
Setting up Verlet run ...
  Unit style    : lj
  Current step  : 6000000
  Time step     : 0.005
Per MPI rank memory allocation (min/avg/max) = 16.93 | 19.56 | 20.06 Mbytes
Step Lx Ly Lz Press Pxx Pyy Pzz PotEng Temp 
 6000000    32.816933    32.816933    32.816933  -0.50429932  -0.44480948  -0.37210835  -0.69598012    1.7839406   0.79616899 
 6000010    33.473272    32.493606    32.493606 -0.002641376   -1.0628804   0.59811873   0.45683758    1.7983913   0.80132461 
 6000020    34.129611    32.179651    32.179651 -0.0064984858    -1.192686   0.55253641   0.62065411    1.8135147   0.82078532 
 6000030    34.785949    31.874623    31.874623    0.1342587   -1.2445666   0.82399689   0.82334578    1.8373051   0.83399169 
 6000040    35.442288    31.578109    31.578109   0.20719191   -1.3884555    1.0378651   0.97216619    1.8642134   0.84911005 
 6000050    36.098627    31.289718    31.289718   0.34535299   -1.1733628    1.1025848    1.1068369    1.8854229   0.86826359 
 6000060    36.754965    31.009087    31.009087   0.48777076    -1.044125    1.3242018    1.1832354    1.9037729   0.88661228 
 6000070    37.411304    30.735874    30.735874   0.51272589   -1.0709538    1.3504679    1.2586636    1.9222539   0.90477444 
 6000080    38.067643    30.469758    30.469758   0.63645997  -0.92852677    1.4629757     1.374931    1.9405212   0.92288609 
 6000090    38.723981    30.210436    30.210436   0.75005875   -0.7404756    1.5085732    1.4820787    1.9526078   0.94418713 
 6000100     39.38032    29.957624    29.957624   0.79384774  -0.61606388    1.5191363    1.4784707    1.9769914   0.95287906 
Loop time of 1.55079 on 216 procs for 100 steps with 28900 atoms

Performance: 27856.728 tau/day, 64.483 timesteps/s
99.9% CPU use with 216 MPI tasks x 1 OpenMP threads

MPI task timing breakdown:
Section |  min time  |  avg time  |  max time  |%varavg| %total
---------------------------------------------------------------
Pair    | 0.00058293 | 0.014245   | 0.035615   |   4.8 |  0.92
Bond    | 2.861e-05  | 0.00024061 | 0.00043869 |   0.0 |  0.02
Kspace  | 1.0565     | 1.0907     | 1.112      |   1.2 | 70.33
Neigh   | 0.03853    | 0.041237   | 0.044883   |   0.6 |  2.66
Comm    | 0.034315   | 0.051853   | 0.079462   |   4.8 |  3.34
Output  | 0.00545    | 0.0091682  | 0.012784   |   1.5 |  0.59
Modify  | 0.16768    | 0.21286    | 0.25254    |   3.7 | 13.73
Other   |            | 0.1305     |            |       |  8.41

Nlocal:    133.796 ave 188 max 6 min
Histogram: 4 1 1 2 5 7 67 100 22 7
Nghost:    982.671 ave 1149 max 388 min
Histogram: 3 1 4 0 7 10 8 45 111 27
Neighs:    5127.48 ave 9392 max 50 min
Histogram: 5 3 3 9 40 94 41 15 3 3

Total # of neighbors = 1107536
Ave neighs/atom = 38.323
Ave special neighs/atom = 0.602076
Neighbor list builds = 49
Dangerous builds = 0
PPPM initialization ...
  using 12-bit tables for long-range coulomb (src/kspace.cpp:332)
  G vector (1/distance) = 1.18863
  grid = 120 96 96
  stencil order = 5
  estimated absolute RMS force accuracy = 0.000106105
  estimated relative force accuracy = 0.000106105
  using double precision FFTW3
  3d grid and FFT values/proc = 11025 5760
WARNING: Neighbor exclusions used with KSpace solver may give inconsistent Coulombic energies (src/neighbor.cpp:486)
Neighbor list info ...
  update every 1 steps, delay 0 steps, check yes
  max neighbors/atom: 2000, page size: 100000
  master list distance cutoff = 2.8
  ghost atom cutoff = 2.8
  binsize = 1.4, bins = 29 22 22
  12 neighbor lists, perpetual/occasional/extra = 2 10 0
  (1) pair lj/cut, perpetual
      attributes: half, newton on
      pair build: half/bin/newton
      stencil: half/bin/3d/newton
      bin: standard
  (2) pair coul/long, perpetual, skip from (1)
      attributes: half, newton on
      pair build: skip
      stencil: none
      bin: none
  (3) compute rdf, occasional, copy from (1)
      attributes: half, newton on
      pair build: copy
      stencil: none
      bin: none
  (4) compute rdf, occasional, copy from (1)
      attributes: half, newton on
      pair build: copy
      stencil: none
      bin: none
  (5) compute rdf, occasional, copy from (1)
      attributes: half, newton on
      pair build: copy
      stencil: none
      bin: none
  (6) compute rdf, occasional, copy from (1)
      attributes: half, newton on
      pair build: copy
      stencil: none
      bin: none
  (7) compute rdf, occasional, copy from (1)
      attributes: half, newton on
      pair build: copy
      stencil: none
      bin: none
  (8) compute rdf, occasional, copy from (1)
      attributes: half, newton on
      pair build: copy
      stencil: none
      bin: none
  (9) compute rdf, occasional, copy from (1)
      attributes: half, newton on
      pair build: copy
      stencil: none
      bin: none
  (10) compute rdf, occasional, copy from (1)
      attributes: half, newton on
      pair build: copy
      stencil: none
      bin: none
  (11) compute rdf, occasional, copy from (1)
      attributes: half, newton on
      pair build: copy
      stencil: none
      bin: none
  (12) compute rdf, occasional, copy from (1)
      attributes: half, newton on
      pair build: copy
      stencil: none
      bin: none
Setting up Verlet run ...
  Unit style    : lj
  Current step  : 6000100
  Time step     : 0.005
Per MPI rank memory allocation (min/avg/max) = 17.06 | 19.59 | 20.06 Mbytes
Step Lx Ly Lz Press Pxx Pyy Pzz PotEng Temp 
 6000100     39.38032    29.957624    29.957624   0.80869232   -1.0664691    1.7506701     1.741876    1.9845345   0.95287906 
 6010000     39.38032    29.957624    29.957624  -0.12494956  -0.13403104 -0.094703625  -0.14611401    1.7818248   0.80203467 
 6020000     39.38032    29.957624    29.957624 -0.056266626  -0.10122194 -0.035992105 -0.031585833    1.8004103   0.80569778 
 6030000     39.38032    29.957624    29.957624 -0.016881094 -0.012389707   0.02901243 -0.067266005     1.793627   0.80000481 
 6040000     39.38032    29.957624    29.957624  -0.15589578  -0.14985539  -0.12126148  -0.19657048    1.8078852   0.80426557 
 6050000     39.38032    29.957624    29.957624   -0.1103098 -0.041523613  -0.17291961  -0.11648616    1.7949993   0.79652424 
 6060000     39.38032    29.957624    29.957624  -0.12429952  -0.15624469  -0.15092969 -0.065724196    1.7926297    0.7994806 
 6070000     39.38032    29.957624    29.957624 -0.057949905 -0.085321888 -0.058312278 -0.030215548     1.804895    0.7976703 
 6080000     39.38032    29.957624    29.957624  -0.18159273  -0.20799454  -0.20034131  -0.13644235    1.7941463   0.79978539 
 6090000     39.38032    29.957624    29.957624  -0.07886858  -0.10284987  -0.04404566 -0.089710211     1.805002   0.79628513 
 6100000     39.38032    29.957624    29.957624  -0.17058562  -0.15541859   -0.1839153  -0.17242297     1.793188   0.80469937 
 6100100     39.38032    29.957624    29.957624  -0.20788082  -0.20691301  -0.22000258  -0.19672688    1.7970969   0.80132214 
Loop time of 1085.05 on 216 procs for 100000 steps with 28900 atoms

Performance: 39813.773 tau/day, 92.162 timesteps/s
99.9% CPU use with 216 MPI tasks x 1 OpenMP threads

MPI task timing breakdown:
Section |  min time  |  avg time  |  max time  |%varavg| %total
---------------------------------------------------------------
Pair    | 0.98243    | 14.29      | 40.157     | 147.6 |  1.32
Bond    | 0.060239   | 0.26332    | 0.44941    |  11.6 |  0.02
Kspace  | 958.5      | 982.28     | 995.89     |  22.4 | 90.53
Neigh   | 11.922     | 12.622     | 13.519     |   8.6 |  1.16
Comm    | 23.693     | 30.473     | 42.246     |  70.8 |  2.81
Output  | 0.044182   | 0.044231   | 0.045226   |   0.0 |  0.00
Modify  | 31.807     | 36.248     | 40.703     |  27.4 |  3.34
Other   |            | 8.831      |            |       |  0.81

Nlocal:    133.796 ave 197 max 6 min
Histogram: 4 0 1 5 6 6 113 60 18 3
Nghost:    981.236 ave 1137 max 378 min
Histogram: 2 2 0 4 7 6 12 25 132 26
Neighs:    5099.55 ave 10108 max 55 min
Histogram: 4 5 7 12 82 67 30 5 3 1

Total # of neighbors = 1101502
Ave neighs/atom = 38.1143
Ave special neighs/atom = 0.602076
Neighbor list builds = 13419
Dangerous builds = 0
Total wall time: 20:58:03
